
   OpenMP run-time library returned nthreads =  2
 operating system is UNIX !

 dscf (southgeorgia) : TURBOMOLE V7.3 ( 22142 ) 4 Jul 2018 at 18:12:42
 Copyright (C) 2018 TURBOMOLE GmbH, Karlsruhe


    2019-10-29 09:56:50.645 



                             d s c f - program

                   idea & directorship : reinhart ahlrichs
                   program development : marco haeser
                                         michael baer
                           dft version : oliver treutler


                          quantum chemistry group
                          universitaet  karlsruhe
                                  germany




                          References             
                                                 
          TURBOMOLE:                             
              R. Ahlrichs, M. Baer, M. Haeser, H. Horn, and
              C. Koelmel
              Electronic structure calculations on workstation
              computers: the program system TURBOMOLE
              Chem. Phys. Lett. 162: 165 (1989)
          Density Functional:                              
              O. Treutler and R. Ahlrichs                      
              Efficient Molecular Numerical Integration Schemes
              J. Chem. Phys. 102: 346 (1995)                   
          Parallel Version:                                
              Performance of parallel TURBOMOLE for Density    
              Functional Calculations                          
              M. v. Arnim and R. Ahlrichs                      
              J. Comp. Chem. 19: 1746 (1998)                   
                                         




              +--------------------------------------------------+
              | Atomic coordinate, charge and isotop information |
              +--------------------------------------------------+

                    atomic coordinates            atom    charge  isotop
          0.00000000    0.00000000   -0.12947694    o      8.000     0
          0.00000000   -1.49418734    1.02744651    h      1.000     0
          0.00000000    1.49418734    1.02744651    h      1.000     0
 
       center of nuclear mass  :    0.00000000    0.00000000   -0.00001570
       center of nuclear charge:    0.00000000    0.00000000    0.10190775

   *************************************************************************
   QCEngine Turbomole                                                       
   *************************************************************************



              +--------------------------------------------------+
              |               basis set information              |
              +--------------------------------------------------+

              we will work with the 1s 3p 5d 7f 9g ... basis set
              ...i.e. with spherical basis functions...

   type   atoms  prim   cont   basis
   ---------------------------------------------------------------------------
    o        1     24     14   def2-SVP   [3s2p1d|7s4p1d]
    h        2      7      5   def2-SVP   [2s1p|4s1p]
   ---------------------------------------------------------------------------
   total:    3     38     24
   ---------------------------------------------------------------------------

   total number of primitive shells          :   17
   total number of contracted shells         :   12
   total number of cartesian basis functions :   25
   total number of SCF-basis functions       :   24


 integral neglect threshold       :  0.13E-10
 integral storage threshold THIZE :  0.10E-04
 integral storage threshold THIME :         5


 symmetry group of the molecule :   c1 

 the group has the following generators :
   c1(z)

    1 symmetry operations found

 there are 1 real representations :   a   

 maximum number of shells which are related by symmetry :  1


    mo occupation :
   irrep   mo's   occupied
    a       24        5
 
 number of basis functions   :                     24
 number of occupied orbitals :                      5
 

 automatic virtual orbital shift switched on 
      shift if e(lumo)-e(homo) < 0.10000000    

  
           ------------------
           density functional
           ------------------
 PBE0 hybrid functional
 exchange:    3/4 (LDA+PBE) + 1/4 HF
 correlation: LDA (PW) + PBE

 iterations will be done with small grid
  
 spherical integration : Lebedev's spherical grid
 spherical gridsize    :                     5
    i.e. gridpoints    :                   590
 value for diffuse not defined
 radial integration    : Chebyshev 2nd kind (scaling 3)
 radial gridsize       :                     8
 integration cells     :                     3
 partition function    : becke
 partition sharpness   :                     3
  

          ------------------------
          nuclear repulsion energy  :   8.80146205625    
          ------------------------


         -----------------
         -S,T+V- integrals
         -----------------

 1e-integrals will be neglected if expon. factor < 0.133678E-11
 
   Difference densities algorithm switched on.
   The maximal number of linear combinations of
   difference densities is                    20 .

 DIIS switched on: error vector is FDS-SDF
 Max. Iterations for DIIS is     :   4
 DIIS matrix (see manual) 
    Scaling factor of diagonals  :  1.200
    threshold for scaling factor :  0.000

 scf convergence criterion : increment of total energy < .1000000D-07
                  and increment of one-electron energy < .1000000D-04

  MOs are in ASCII format !


 reading orbital data $scfmo  from file mos
 orbital characterization : expanded
 mo provided and orthogonalized by Cholesky decomposition

 DSCF restart information will be dumped onto file mos

          Overall gridpoints after grid construction =         13746
 
                                              current damping :  0.700
 ITERATION  ENERGY          1e-ENERGY        2e-ENERGY     NORM[dD(SAO)]  TOL
   1  -76.061686306757    -123.80966488     38.946516514    0.000D+00 0.133D-10
                            Exc =    -7.131577049159     N = 9.9999967247    
          max. resid. norm for Fia-block=  2.762D-01 for orbital      4a         
          max. resid. fock norm         =  1.444D+00 for orbital     10a         
          Delta Eig. =    31.3676962894 eV 
 
                                              current damping :  0.650
 ITERATION  ENERGY          1e-ENERGY        2e-ENERGY     NORM[dD(SAO)]  TOL
   2  -76.233202995407    -122.51188535     37.477220299    0.419D+00 0.878D-11
                            Exc =    -6.991972460535     N = 9.9999972379    
          Norm of current diis error: 0.48724    
          max. resid. norm for Fia-block=  1.186D-01 for orbital      1a         
          max. resid. fock norm         =  1.242D-01 for orbital      6a         
          Delta Eig. =    13.3382451369 eV 
 
                                              current damping :  0.600
 ITERATION  ENERGY          1e-ENERGY        2e-ENERGY     NORM[dD(SAO)]  TOL
   3  -76.263290286887    -122.59125147     37.526499128    0.156D+00 0.665D-11
                            Exc =    -7.012408127101     N = 9.9999972103    
          Norm of current diis error: 0.23101    
          max. resid. norm for Fia-block=  4.717D-02 for orbital      1a         
          max. resid. fock norm         =  5.156D-02 for orbital      6a         
          Delta Eig. =     5.1447869225 eV 
 
                                              current damping :  0.650
 ITERATION  ENERGY          1e-ENERGY        2e-ENERGY     NORM[dD(SAO)]  TOL
   4  -76.271887065421    -122.40513588     37.331786754    0.477D-01 0.567D-11
                            Exc =    -7.001305771619     N = 9.9999972224    
          Norm of current diis error: 0.84481E-01
          max. resid. norm for Fia-block=  1.811D-02 for orbital      3a         
          max. resid. fock norm         =  2.231D-02 for orbital      6a         
          Delta Eig. =     1.8831570207 eV 
 
                                              current damping :  0.700
 ITERATION  ENERGY          1e-ENERGY        2e-ENERGY     NORM[dD(SAO)]  TOL
   5  -76.273333673218    -122.41492200     37.340126270    0.103D-01 0.517D-11
                            Exc =    -7.006070904005     N = 9.9999972153    
          Norm of current diis error: 0.36609E-01
          max. resid. norm for Fia-block=  8.548D-03 for orbital      4a         
          max. resid. fock norm         =  9.579D-03 for orbital      6a         
 mo-orthogonalization: Cholesky decomposition
          Delta Eig. =     0.6975319285 eV 
 
                                              current damping :  0.750
 ITERATION  ENERGY          1e-ENERGY        2e-ENERGY     NORM[dD(SAO)]  TOL
   6  -76.273632185618    -122.39538583     37.320291592    0.162D-02 0.483D-11
                            Exc =    -7.005684575033     N = 9.9999972173    
          Norm of current diis error: 0.15215E-01
          max. resid. norm for Fia-block=  3.655D-03 for orbital      4a         
          max. resid. fock norm         =  4.327D-03 for orbital      6a         
          Delta Eig. =     0.2825045989 eV 
 
                                              current damping :  0.800
 ITERATION  ENERGY          1e-ENERGY        2e-ENERGY     NORM[dD(SAO)]  TOL
   7  -76.273688890064    -122.39587586     37.320724909    0.257D-03 0.460D-11
                            Exc =    -7.006412061155     N = 9.9999972170    
          Norm of current diis error: 0.69564E-02
          max. resid. norm for Fia-block=  1.842D-03 for orbital      4a         
          max. resid. fock norm         =  1.973D-03 for orbital      6a         
          Delta Eig. =     0.1159219154 eV 
 
                                              current damping :  0.850
 ITERATION  ENERGY          1e-ENERGY        2e-ENERGY     NORM[dD(SAO)]  TOL
   8  -76.273701209091    -122.39248255     37.317319280    0.439D-04 0.443D-11
                            Exc =    -7.006361639469     N = 9.9999972177    
          Norm of current diis error: 0.31065E-02
          max. resid. norm for Fia-block=  8.015D-04 for orbital      4a         
          max. resid. fock norm         =  9.238D-04 for orbital      6a         
          Delta Eig. =     0.0511286829 eV 
 
                                              current damping :  0.900
 ITERATION  ENERGY          1e-ENERGY        2e-ENERGY     NORM[dD(SAO)]  TOL
   9  -76.273703736350    -122.39289904     37.317733243    0.692D-05 0.430D-11
                            Exc =    -7.006533213837     N = 9.9999972177    
          Norm of current diis error: 0.15045E-02
          max. resid. norm for Fia-block=  4.276D-04 for orbital      4a         
          max. resid. fock norm         =  4.410D-04 for orbital      6a         
          Delta Eig. =     0.0224464226 eV 
 
                                              current damping :  0.950
 ITERATION  ENERGY          1e-ENERGY        2e-ENERGY     NORM[dD(SAO)]  TOL
  10  -76.273704336934    -122.39208136     37.316914965    0.182D-05 0.419D-11
                            Exc =    -7.006509628092     N = 9.9999972179    
          Norm of current diis error: 0.70644E-03
          max. resid. norm for Fia-block=  1.900D-04 for orbital      4a         
          max. resid. fock norm         =  2.147D-04 for orbital      6a         
 mo-orthogonalization: Cholesky decomposition
          Delta Eig. =     0.0106201798 eV 
 
                                              current damping :  1.000
 ITERATION  ENERGY          1e-ENERGY        2e-ENERGY     NORM[dD(SAO)]  TOL
  11  -76.273704470011    -122.39219436     37.317027834    0.431D-06 0.411D-11
                            Exc =    -7.006548438304     N = 9.9999972180    
          Norm of current diis error: 0.35713E-03
          max. resid. norm for Fia-block=  1.045D-04 for orbital      4a         
          max. resid. fock norm         =  1.073D-04 for orbital      6a         
          Delta Eig. =     0.0049446778 eV 
 
                                              current damping :  1.050
 ITERATION  ENERGY          1e-ENERGY        2e-ENERGY     NORM[dD(SAO)]  TOL
  12  -76.273704504265    -122.39203623     37.316869674    0.915D-07 0.403D-11
                            Exc =    -7.006545644720     N = 9.9999972180    
          Norm of current diis error: 0.17802E-03
          max. resid. norm for Fia-block=  4.952D-05 for orbital      4a         
          max. resid. fock norm         =  5.462D-05 for orbital      6a         
          Delta Eig. =     0.0024605362 eV 

 ENERGY CONVERGED !

 Big Grid 
 e2xc, e2xcold =     -7.00655376     -7.00655376
          Overall gridpoints after grid construction =         46262
 
                                              current damping :  1.100
 ITERATION  ENERGY          1e-ENERGY        2e-ENERGY     NORM[dD(SAO)]  TOL
  13  -76.273711359001    -122.39205288     37.316879462    0.190D-07 0.395D-11
                            Exc =    -7.006560609539     N = 10.000000045    
          max. resid. norm for Fia-block=  2.560D-05 for orbital      4a         
          max. resid. fock norm         =  2.582D-05 for orbital      4a         

 convergence criteria satisfied after    13 iterations


   *************************************************************************
   QCEngine Turbomole                                                       
   *************************************************************************


                  ------------------------------------------ 
                 |  total energy      =    -76.27371135900  |
                  ------------------------------------------ 
                 :  kinetic energy    =     75.68747524764  :
                 :  potential energy  =   -151.96118660664  :
                 :  virial theorem    =      1.99231404765  :
                 :  wavefunction norm =      1.00000000000  :
                  .......................................... 


 <geterg> : there is no data group $energy 


 <skperg> : $end is missing 


 orbitals $scfmo  will be written to file mos

    irrep                  1a          2a          3a          4a          5a   
 eigenvalues H        -19.19753    -0.99035    -0.51498    -0.37694    -0.30212
            eV        -522.3955    -26.9489    -14.0134    -10.2573     -8.2213
 occupation              2.0000      2.0000      2.0000      2.0000      2.0000 

    irrep                  6a          7a          8a          9a         10a   
 eigenvalues H          0.05510     0.13228     0.55794     0.60668     0.94045
            eV           1.4993      3.5996     15.1825     16.5088     25.5910
 
 
 
 
 ==============================================================================
                           electrostatic moments
 ==============================================================================

 reference point for electrostatic moments:    0.00000   0.00000   0.00000

 
              nuc           elec       ->  total
 ------------------------------------------------------------------------------
                          charge      
 ------------------------------------------------------------------------------
          10.000000     -10.000000      -0.000000
 
 ------------------------------------------------------------------------------
                       dipole moment  
 ------------------------------------------------------------------------------
   x       0.000000       0.000000       0.000000
   y       0.000000      -0.000000      -0.000000
   z       1.019078      -0.218142       0.800935
 
   | dipole moment | =     0.8009 a.u. =     2.0358 debye 
 
 ------------------------------------------------------------------------------
                     quadrupole moment
 ------------------------------------------------------------------------------
  xx       0.000000      -5.272535      -5.272535
  yy       4.465192      -7.571237      -3.106045
  zz       2.245407      -6.519632      -4.274225
  xy       0.000000      -0.000000      -0.000000
  xz       0.000000       0.000000       0.000000
  yz       0.000000      -0.000000      -0.000000
 
     1/3  trace=      -4.217602
     anisotropy=       1.878157
 
 ==============================================================================
 


    ------------------------------------------------------------------------
         total  cpu-time :   0.33 seconds
         total wall-time :   0.20 seconds
    ------------------------------------------------------------------------

   ****  dscf : all done  ****


    2019-10-29 09:56:50.839 

