
 Primary working directories    : /tmp/sjlee/molpro.1qJhSrRdX8
 Secondary working directories  : /tmp/sjlee/molpro.1qJhSrRdX8
 Wavefunction directory         : /home/sjlee/wfu/
 Main file repository           : /tmp/sjlee/molpro.1qJhSrRdX8/

 id        : sjlee

 Nodes             nprocs
 tachus.caltech.edu    1

 Using customized tuning parameters: mindgm=1; mindgv=20; mindgc=4; mindgr=1; noblas=0; minvec=7
 default implementation of scratch files=df  


 Variables initialized (934), CPU time= 0.01 sec
 memory,225,M
 
 {orient,noorient}
 {symmetry,nosym}
 
 {bohr}
 geometry={
 O                     0.000000000000     0.000000000000    -0.129476940000
 H                     0.000000000000    -1.494187340000     1.027446510000
 H                     0.000000000000     1.494187340000     1.027446510000
 }
 set,charge=0.0
 set,multiplicity=1
 
 basis={
 default,sto-3g
 }
 
 {HF}
 {CCSD}
 Commands  initialized (761), CPU time= 0.01 sec, 617 directives.
 Default parameters read. Elapsed time= 0.17 sec

 Checking input...
 Passed
1


                                         ***  PROGRAM SYSTEM MOLPRO  ***
                                       Copyright, TTI GmbH Stuttgart, 2015
                                    Version 2019.2 linked May  2 2019 15:37:00


 **********************************************************************************************************************************
 LABEL *                                                                                 
  64 bit serial version                                                                  DATE: 07-Jun-19          TIME: 13:20:47  
 **********************************************************************************************************************************

 SHA1:             8138d7467d1acbebe89db460979ba3ffe8b2d70c
 **********************************************************************************************************************************

 Variable memory set to  225000000 words,  buffer space 

 ZSYMEL=NOSYM
 ZUNIT=BOHR


Geometry recognized as XYZ

 SETTING CHARGE         =     0.00000000D+00                                  
 SETTING MULTIPLICITY   =         1.00000000                                  
 SETTING BASIS          =    STO-3G


 Recomputing integrals since basis changed


 Using spherical harmonics

 Library entry O      S STO-3G               selected for orbital group  1
 Library entry O      P STO-3G               selected for orbital group  1
 Library entry H      S STO-3G               selected for orbital group  2


 PROGRAM * SEWARD (Integral evaluation for generally contracted gaussian basis sets)     Author: Roland Lindh, 1990

 Geometry written to block  1 of record 700


 Point group  C1  



 ATOMIC COORDINATES

 NR  ATOM    CHARGE       X              Y              Z

   1  O       8.00    0.000000000    0.000000000   -0.129476940
   2  H       1.00    0.000000000   -1.494187340    1.027446510
   3  H       1.00    0.000000000    1.494187340    1.027446510

 Bond lengths in Bohr (Angstrom)

 1-2  1.889726879  1-3  1.889726879
     ( 1.000000399)     ( 1.000000399)

 Bond angles

  2-1-3  104.49999998

 NUCLEAR CHARGE:                   10
 NUMBER OF PRIMITIVE AOS:          21
 NUMBER OF SYMMETRY AOS:           21
 NUMBER OF CONTRACTIONS:            7   (    7A   )
 NUMBER OF CORE ORBITALS:           1   (    1A   )
 NUMBER OF VALENCE ORBITALS:        6   (    6A   )


 NUCLEAR REPULSION ENERGY    8.80146206

 EXTRA SYMMETRY OF AOS IN SYMMETRY 1:   1 1 2 1 1 1 1

 Eigenvalues of metric

         1 0.370E+00 0.448E+00 0.886E+00 0.100E+01 0.110E+01 0.132E+01 0.188E+01


 Contracted 2-electron integrals neglected if value below      1.0D-11
 AO integral compression algorithm  1   Integral accuracy      1.0D-11

     0.262 MB (compressed) written to integral file (100.0%)


 NUMBER OF SORTED TWO-ELECTRON INTEGRALS:        406.     BUFFER LENGTH:  32768
 NUMBER OF SEGMENTS:   1  SEGMENT LENGTH:        406      RECORD LENGTH: 524288

 Memory used in sort:       0.56 MW

 SORT1 READ         543. AND WROTE         228. INTEGRALS IN      1 RECORDS. CPU TIME:     0.00 SEC, REAL TIME:     0.00 SEC
 SORT2 READ         228. AND WROTE         406. INTEGRALS IN      1 RECORDS. CPU TIME:     0.00 SEC, REAL TIME:     0.00 SEC

 FILE SIZES:   FILE 1:    30.2 MBYTE,  FILE 4:     4.2 MBYTE,   TOTAL:     34.5 MBYTE

 OPERATOR DM      FOR CENTER  0  COORDINATES:    0.000000    0.000000    0.000000


 **********************************************************************************************************************************
 DATASETS  * FILE   NREC   LENGTH (MB)   RECORD NAMES
              1      19       29.97       500      610      700      900      950      970     1000      129      960     1100   
                                          VAR    BASINP    GEOM    SYMINP    ZMAT    AOBASIS   BASIS     P2S    ABASIS      S 
                                         1400     1410     1200     1210     1080     1600     1650     1300     1700   
                                           T        V       H0       H01     AOSYM     SMH    MOLCAS    ERIS     OPER   

 PROGRAMS   *        TOTAL       INT
 CPU TIMES  *         0.52      0.38
 REAL TIME  *         0.84 SEC
 DISK USED  *        34.75 MB
 **********************************************************************************************************************************


 PROGRAM * RHF-SCF (CLOSED SHELL)       Authors: W. Meyer, H.-J. Werner


 NUMBER OF ELECTRONS:       5+    5-    SPACE SYMMETRY=1    SPIN SYMMETRY: Singlet 
 CONVERGENCE THRESHOLDS:    1.00E-05 (Density)    1.00E-07 (Energy)
 MAX. NUMBER OF ITERATIONS:       60
 INTERPOLATION TYPE:            DIIS
 INTERPOLATION STEPS:              2 (START)      1 (STEP)
 LEVEL SHIFTS:                  0.00 (CLOSED)  0.00 (OPEN) 



 Orbital guess generated from atomic densities. Full valence occupancy:    5

 Molecular orbital dump at record        2100.2

 Initial occupancy:   5

 ITERATION    DDIFF          GRAD             ENERGY        2-EL.EN.            DIPOLE MOMENTS         DIIS   ORB.
    1      0.000D+00      0.000D+00       -74.86380095     79.459600   -0.00000   -0.00000    1.28957    0    start
    2      0.000D+00      0.810D-01       -74.96352339     75.492370   -0.00000   -0.00000    0.61950    1    diag
    3      0.141D+00      0.985D-02       -74.96463086     75.823916   -0.00000   -0.00000    0.66263    2    diag
    4      0.112D-01      0.139D-02       -74.96466226     75.821106   -0.00000   -0.00000    0.65680    3    diag
    5      0.290D-02      0.909D-04       -74.96466250     75.821628   -0.00000   -0.00000    0.65672    4    diag
    6      0.256D-03      0.198D-04       -74.96466252     75.821274   -0.00000    0.00000    0.65662    5    diag
    7      0.747D-04      0.680D-06       -74.96466252     75.821303   -0.00000   -0.00000    0.65663    6    diag
    8      0.167D-05      0.650D-09       -74.96466252     75.821303   -0.00000   -0.00000    0.65663    0    orth

 Final occupancy:   5

 !RHF STATE  1.1 Energy               -74.964662516694
 Nuclear energy                         8.80146206
 One-electron energy                 -121.67677627
 Two-electron energy                   37.91065169
 Virial quotient                       -1.00628987
 !RHF STATE  1.1 Dipole moment         -0.00000000    -0.00000000     0.65662910
 Dipole moment /Debye                  -0.00000000    -0.00000000     1.66887539

 Orbital energies:

         1.1          2.1          3.1          4.1          5.1          6.1          7.1
    -20.247270    -1.247774    -0.595851    -0.447884    -0.388956     0.564152     0.693007


 HOMO      5.1    -0.388956 =     -10.5840eV
 LUMO      6.1     0.564152 =      15.3514eV
 LUMO-HOMO         0.953108 =      25.9354eV


 **********************************************************************************************************************************
 DATASETS  * FILE   NREC   LENGTH (MB)   RECORD NAMES
              1      19       29.97       500      610      700      900      950      970     1000      129      960     1100   
                                          VAR    BASINP    GEOM    SYMINP    ZMAT    AOBASIS   BASIS     P2S    ABASIS      S 
                                         1400     1410     1200     1210     1080     1600     1650     1300     1700   
                                           T        V       H0       H01     AOSYM     SMH    MOLCAS    ERIS     OPER   

              2       4        2.78       700     1000      520     2100   
                                         GEOM     BASIS   MCVARS     RHF  

 PROGRAMS   *        TOTAL    HF-SCF       INT
 CPU TIMES  *         0.62      0.10      0.38
 REAL TIME  *         0.97 SEC
 DISK USED  *        34.75 MB
 **********************************************************************************************************************************


 PROGRAM * CCSD (Closed-shell coupled cluster)     Authors: C. Hampel, H.-J. Werner, 1991, M. Deegan, P.J. Knowles, 1992


 Convergence thresholds:  THRVAR = 1.00D-08  THRDEN = 1.00D-06

 Number of core orbitals:           1 (   1 )
 Number of closed-shell orbitals:   4 (   4 )
 Number of external orbitals:       2 (   2 )

 Molecular orbitals read from record     2100.2  Type=RHF/CANONICAL (state 1.1)

 Number of N-1 electron functions:               4
 Number of N-2 electron functions:              10
 Number of singly external CSFs:                 8
 Number of doubly external CSFs:                36
 Total number of CSFs:                          45

 Length of J-op  integral file:               0.00 MB
 Length of K-op  integral file:               0.03 MB
 Length of 3-ext integral record:             0.00 MB

 Integral transformation finished. Total CPU:   0.00 sec, npass=  1  Memory used:   0.07 MW

 Reference energy:                    -74.96466252

 MP2 singlet pair energy:              -0.03562621
 MP2 triplet pair energy:              -0.00343876
 MP2 correlation energy:               -0.03906497
 MP2 total energy:                    -75.00372748

 SCS-MP2 correlation energy:           -0.04489112   (PS=  1.200000  PT=  0.333333)
 SCS-MP2 total energy:                -75.00955364

 ITER.      SQ.NORM     CORR.ENERGY   TOTAL ENERGY   ENERGY CHANGE        DEN1      VAR(S)    VAR(P)  DIIS     TIME  TIME/IT
   1      1.02433803    -0.05279852   -75.01746104    -0.01373355    -0.00974732  0.85D-04  0.11D-02  1  1     0.01     0.00
   2      1.03137797    -0.05493179   -75.01959430    -0.00213326    -0.00581443  0.14D-04  0.28D-04  2  2     0.02     0.00
   3      1.03210238    -0.05496107   -75.01962359    -0.00002929    -0.00030096  0.14D-05  0.86D-06  3  3     0.02     0.00
   4      1.03226227    -0.05499137   -75.01965388    -0.00003029    -0.00005794  0.56D-07  0.24D-07  4  4     0.02     0.00
   5      1.03225458    -0.05497640   -75.01963892     0.00001497     0.00000908  0.65D-09  0.82D-09  5  5     0.02     0.00
   6      1.03226119    -0.05498082   -75.01964334    -0.00000442    -0.00000421  0.76D-10  0.36D-10  6  6     0.02     0.00
   7      1.03225930    -0.05497929   -75.01964181     0.00000153     0.00000148  0.16D-11  0.41D-11  6  1     0.03     0.00
   8      1.03225931    -0.05497929   -75.01964181    -0.00000001    -0.00000002  0.84D-13  0.13D-12  6  3     0.03     0.00
   9      1.03225931    -0.05497929   -75.01964181     0.00000000    -0.00000000  0.12D-13  0.13D-13  6  2     0.03     0.00

 Norm of t1 vector:      0.02263663      S-energy:    -0.00000000      T1 diagnostic:  0.00565916
                                                                       D1 diagnostic:  0.01569867

 Doubles amplitudes (print threshold =  0.500E-01):

         I         J         SYM. A    SYM. B    A         B      T(IJ, AB)

         2         2         1         1         2         2     -0.08400969
         3         2         1         1         1         2      0.05418118
         3         3         1         1         1         1     -0.05521847


 RESULTS
 =======

  Reference energy                    -74.964662516694
  CCSD singlet pair energy             -0.052123930999
  CCSD triplet pair energy             -0.002855358128
  CCSD correlation energy              -0.054979291792

 !CCSD total energy                   -75.019641808486

 Timing summary (sec):

 STEP                 CPU(USER)    SYS     CPU(TOT)    WALL
 CCSD iterations         0.03      0.01      0.04      0.03

 Program statistics:

 Available memory in ccsd:               224999931
 Min. memory needed in ccsd:                  1206
 Max. memory used in ccsd:                    1206
 Max. memory used in cckext:                 34508 ( 9 integral passes)



 **********************************************************************************************************************************
 DATASETS  * FILE   NREC   LENGTH (MB)   RECORD NAMES
              1      20       29.98       500      610      700      900      950      970     1000      129      960     1100   
                                          VAR    BASINP    GEOM    SYMINP    ZMAT    AOBASIS   BASIS     P2S    ABASIS      S 
                                         1400     1410     1200     1210     1080     1600     1650     1300     1700     1380   
                                           T        V       H0       H01     AOSYM     SMH    MOLCAS    ERIS     OPER     JKOP   

              2       4        2.78       700     1000      520     2100   
                                         GEOM     BASIS   MCVARS     RHF  

 PROGRAMS   *        TOTAL      CCSD    HF-SCF       INT
 CPU TIMES  *         0.69      0.06      0.10      0.38
 REAL TIME  *         1.05 SEC
 DISK USED  *        34.75 MB
 **********************************************************************************************************************************
 Molecular orbitals read from record     2100.2  Type=RHF/CANONICAL (state 1.1)
 Occupation numbers read from record     2100.2  Type=RHF/RHF (state 1.1)
 Orbital energies read from record       2100.2  Type=RHF/CANONICAL (state 1.1)
 Redundancy group numbers read from rec  2100.2  Type=RHF/RHF (state 1.1)

 CCSD/STO-3G energy=    -75.019641808486

            CCSD          HF-SCF
    -75.01964181    -74.96466252
 **********************************************************************************************************************************
 Molpro calculation terminated
