
 Primary working directories    : /tmp/sjlee/molpro.Q6aNSq1fCc
 Secondary working directories  : /tmp/sjlee/molpro.Q6aNSq1fCc
 Wavefunction directory         : /home/sjlee/wfu/
 Main file repository           : /tmp/sjlee/molpro.Q6aNSq1fCc/

 id        : sjlee

 Nodes             nprocs
 tachus.caltech.edu    2

 Using customized tuning parameters: mindgm=1; mindgv=20; mindgc=4; mindgr=1; noblas=0; minvec=7
 default implementation of scratch files=sf  


 Variables initialized (932), CPU time= 0.02 sec
                                                                                 !Title
 memory,225,M
 
 {symmetry,nosym}
 
 geometry={
 O      0.0000000000   0.0000000000  -0.1294769400
 H      0.0000000000  -1.4941873400   1.0274465100
 H      0.0000000000   1.4941873400   1.0274465100
 }
 set,charge=0.0
 set,multiplicity=1
 
 basis={
 default,sto-3g
 }
 
 {HF}
 {CCSD}
 Commands  initialized (760), CPU time= 0.02 sec, 617 directives.
 Default parameters read. Elapsed time= 0.14 sec

 Checking input...
 Passed
1


                                         ***  PROGRAM SYSTEM MOLPRO  ***
                                       Copyright, TTI GmbH Stuttgart, 2015
                                    Version 2019.2 linked Mar 19 2019 16:21:13


 **********************************************************************************************************************************
 LABEL *                                                                                 
  64 bit mpp version                                                                     DATE: 21-Mar-19          TIME: 15:51:18  
 **********************************************************************************************************************************

 SHA1:             e713f337183b0a78c0f0822b2e62366aa9e62d67
 **********************************************************************************************************************************

 Variable memory set to  225000000 words,  buffer space 

 ZSYMEL=NOSYM


Geometry recognized as XYZ

 SETTING CHARGE         =     0.00000000D+00                                  
 SETTING MULTIPLICITY   =         1.00000000                                  
 SETTING BASIS          =    STO-3G


 Recomputing integrals since basis changed


 Using spherical harmonics

 Library entry O      S STO-3G               selected for orbital group  1
 Library entry O      P STO-3G               selected for orbital group  1
 Library entry H      S STO-3G               selected for orbital group  2


 PROGRAM * SEWARD (Integral evaluation for generally contracted gaussian basis sets)     Author: Roland Lindh, 1990

 Geometry written to block  1 of record 700


 Point group  C1  



 ATOMIC COORDINATES

 NR  ATOM    CHARGE       X              Y              Z

   1  O       8.00    0.000000000    0.000000000   -0.244675956
   2  H       1.00    0.000000000   -2.823604851    1.941592512
   3  H       1.00    0.000000000    2.823604851    1.941592512

 NUCLEAR CHARGE:                   10
 NUMBER OF PRIMITIVE AOS:          21
 NUMBER OF SYMMETRY AOS:           21
 NUMBER OF CONTRACTIONS:            7   (    7A   )
 NUMBER OF CORE ORBITALS:           1   (    1A   )
 NUMBER OF VALENCE ORBITALS:        6   (    6A   )


 NUCLEAR REPULSION ENERGY    4.65753314

 EXTRA SYMMETRY OF AOS IN SYMMETRY 1:   1 1 2 1 1 1 1

 Eigenvalues of metric

         1 0.731E+00 0.875E+00 0.926E+00 0.100E+01 0.108E+01 0.111E+01 0.128E+01


 Contracted 2-electron integrals neglected if value below      1.0D-11
 AO integral compression algorithm  1   Integral accuracy      1.0D-11

     0.524 MB (compressed) written to integral file (100.0%)

     Node minimum: 0.262 MB, node maximum: 0.262 MB


 NUMBER OF SORTED TWO-ELECTRON INTEGRALS:        210.     BUFFER LENGTH:  32768
 NUMBER OF SEGMENTS:   1  SEGMENT LENGTH:        210      RECORD LENGTH: 524288

 Memory used in sort:       0.56 MW

 SORT1 READ         543. AND WROTE         114. INTEGRALS IN      1 RECORDS. CPU TIME:     0.00 SEC, REAL TIME:     0.00 SEC
 SORT2 READ         228. AND WROTE         406. INTEGRALS IN      2 RECORDS. CPU TIME:     0.00 SEC, REAL TIME:     0.01 SEC

 Node minimum:         196.  Node maximum:         210. integrals

 OPERATOR DM      FOR CENTER  0  COORDINATES:    0.000000    0.000000    0.000000


 **********************************************************************************************************************************
 DATASETS  * FILE   NREC   LENGTH (MB)   RECORD NAMES
              1      18       29.97       500      610      700      900      950      970     1000      129      960     1100   
                                          VAR    BASINP    GEOM    SYMINP    ZMAT    AOBASIS   BASIS     P2S    ABASIS      S 
                                         1400     1410     1200     1210     1080     1600     1650     1700   
                                           T        V       H0       H01     AOSYM     SMH    MOLCAS    OPER   

 PROGRAMS   *        TOTAL       INT
 CPU TIMES  *         1.16      0.74
 REAL TIME  *         6.07 SEC
 DISK USED  *        30.26 MB (local),       68.92 MB (total)
 GA USED    *         0.00 MB       (max)       0.00 MB       (current)
 **********************************************************************************************************************************


 PROGRAM * RHF-SCF (CLOSED SHELL)       Authors: W. Meyer, H.-J. Werner


 NUMBER OF ELECTRONS:       5+    5-    SPACE SYMMETRY=1    SPIN SYMMETRY: Singlet 
 CONVERGENCE THRESHOLDS:    1.00E-05 (Density)    1.00E-07 (Energy)
 MAX. NUMBER OF ITERATIONS:       60
 INTERPOLATION TYPE:            DIIS
 INTERPOLATION STEPS:              2 (START)      1 (STEP)
 LEVEL SHIFTS:                  0.00 (CLOSED)  0.00 (OPEN) 



 Orbital guess generated from atomic densities. Full valence occupancy:    5

 Molecular orbital dump at record        2100.2

 Initial occupancy:   5

 ITERATION    DDIFF          GRAD             ENERGY        2-EL.EN.            DIPOLE MOMENTS         DIIS   ORB.
    1      0.000D+00      0.000D+00       -73.75780540     82.722759   -0.00000    0.00000    3.58909    0    start
    2      0.000D+00      0.130D+00       -73.63194479     55.811199    0.00000    0.00000   -3.65056    1    diag
    3      0.627D+00      0.130D+00       -74.45309119     69.592563   -0.00000   -0.00000    0.54524    2    diag
    4      0.376D+00      0.187D-01       -74.45597365     69.285245   -0.00000    0.00000    0.49559    3    diag
    5      0.875D-02      0.136D-01       -74.45775599     68.993196   -0.00000    0.00000    0.42141    4    diag
    6      0.671D-02      0.930D-02       -74.45879148     68.733474   -0.00000    0.00000    0.35449    5    diag
    7      0.609D-02      0.548D-02       -74.45925591     68.515388   -0.00000    0.00000    0.29813    6    diag
    8      0.532D-02      0.226D-02       -74.45937447     68.373834   -0.00000    0.00000    0.26222    7    diag
    9      0.914D-02      0.531D-04       -74.45937455     68.370668    0.00000    0.00000    0.26145    8    diag
   10      0.285D-03      0.230D-05       -74.45937455     68.370604   -0.00000    0.00000    0.26144    9    orth
   11      0.155D-05      0.135D-05       -74.45937455     68.370384   -0.00000    0.00000    0.26138    0    orth

 Final occupancy:   5

 !RHF STATE  1.1 Energy               -74.459374547372
 Nuclear energy                         4.65753314
 One-electron energy                 -113.30209964
 Two-electron energy                   34.18519195
 Virial quotient                       -1.00087133
 !RHF STATE  1.1 Dipole moment         -0.00000000     0.00000000     0.26137953
 Dipole moment /Debye                  -0.00000000     0.00000000     0.66431698

 Orbital energies:

         1.1          2.1          3.1          4.1          5.1          6.1          7.1
    -20.314725    -1.128943    -0.408197    -0.310725    -0.303268     0.124007     0.163924


 HOMO      5.1    -0.303268 =      -8.2524eV
 LUMO      6.1     0.124007 =       3.3744eV
 LUMO-HOMO         0.427275 =      11.6267eV


 **********************************************************************************************************************************
 DATASETS  * FILE   NREC   LENGTH (MB)   RECORD NAMES
              1      18       29.97       500      610      700      900      950      970     1000      129      960     1100   
                                          VAR    BASINP    GEOM    SYMINP    ZMAT    AOBASIS   BASIS     P2S    ABASIS      S 
                                         1400     1410     1200     1210     1080     1600     1650     1700   
                                           T        V       H0       H01     AOSYM     SMH    MOLCAS    OPER   

              2       4        2.78       700     1000      520     2100   
                                         GEOM     BASIS   MCVARS     RHF  

 PROGRAMS   *        TOTAL    HF-SCF       INT
 CPU TIMES  *         1.31      0.14      0.74
 REAL TIME  *         6.25 SEC
 DISK USED  *        32.79 MB (local),       73.96 MB (total)
 SF USED    *         0.00 MB
 GA USED    *         0.00 MB       (max)       0.00 MB       (current)
 **********************************************************************************************************************************


 PROGRAM * CCSD (Closed-shell coupled cluster)     Authors: C. Hampel, H.-J. Werner, 1991, M. Deegan, P.J. Knowles, 1992


 Convergence thresholds:  THRVAR = 1.00D-08  THRDEN = 1.00D-06

 Number of core orbitals:           1 (   1 )
 Number of closed-shell orbitals:   4 (   4 )
 Number of external orbitals:       2 (   2 )

 Molecular orbitals read from record     2100.2  Type=RHF/CANONICAL (state 1.1)

 Number of N-1 electron functions:               4
 Number of N-2 electron functions:              10
 Number of singly external CSFs:                 8
 Number of doubly external CSFs:                36
 Total number of CSFs:                          45

 Length of J-op  integral file:               0.00 MB
 Length of K-op  integral file:               0.00 MB
 Length of 3-ext integral record:             0.00 MB

 Integral transformation finished. Total CPU:   0.00 sec, npass=  1  Memory used:   0.07 MW

 Reference energy:                    -74.45937455

 MP2 singlet pair energy:              -0.18277178
 MP2 triplet pair energy:              -0.02874953
 MP2 correlation energy:               -0.21152131
 MP2 total energy:                    -74.67089586

 SCS-MP2 correlation energy:           -0.23721474   (PS=  1.200000  PT=  0.333333)
 SCS-MP2 total energy:                -74.69658928

 ITER.      SQ.NORM     CORR.ENERGY   TOTAL ENERGY   ENERGY CHANGE        DEN1      VAR(S)    VAR(P)  DIIS     TIME  TIME/IT
   1      1.30965561    -0.27164434   -74.73101889    -0.06012303    -0.02127177  0.20D-02  0.29D-01  1  1     0.06     0.00
   2      1.47592417    -0.31112739   -74.77050193    -0.03948305    -0.04384725  0.10D-03  0.93D-02  2  2     0.06     0.00
   3      1.61521057    -0.31387096   -74.77324550    -0.00274357    -0.02826863  0.24D-03  0.14D-02  3  3     0.07     0.00
   4      1.64023679    -0.31438358   -74.77375813    -0.00051262    -0.00355787  0.48D-04  0.67D-03  4  4     0.07     0.00
   5      1.74611853    -0.32354721   -74.78292176    -0.00916363    -0.01154842  0.47D-04  0.11D-03  5  5     0.07     0.00
   6      1.75635912    -0.32421100   -74.78358555    -0.00066379    -0.00369626  0.96D-05  0.20D-04  6  6     0.07     0.00
   7      1.75665372    -0.32314505   -74.78251960     0.00106595     0.00085676  0.20D-05  0.22D-05  6  3     0.07     0.00
   8      1.76621273    -0.32433430   -74.78370885    -0.00118925    -0.00155939  0.22D-06  0.27D-06  6  5     0.08     0.00
   9      1.76444257    -0.32413128   -74.78350583     0.00020302     0.00025636  0.40D-07  0.44D-07  6  4     0.08     0.00
  10      1.76367886    -0.32409548   -74.78347003     0.00003580     0.00006442  0.15D-08  0.10D-08  6  1     0.08     0.00
  11      1.76395295    -0.32412238   -74.78349693    -0.00002690    -0.00002198  0.14D-09  0.78D-09  6  2     0.08     0.00
  12      1.76404731    -0.32412966   -74.78350420    -0.00000728    -0.00001159  0.59D-10  0.85D-10  6  3     0.08     0.00
  13      1.76404548    -0.32412799   -74.78350253     0.00000167    -0.00000018  0.71D-11  0.10D-10  6  6     0.09     0.00
  14      1.76404568    -0.32412754   -74.78350209     0.00000045    -0.00000012  0.39D-11  0.26D-12  6  1     0.09     0.00
  15      1.76404588    -0.32412745   -74.78350200     0.00000009    -0.00000007  0.61D-13  0.93D-13  6  4     0.09     0.00

 Norm of t1 vector:      0.09713312      S-energy:     0.00000028      T1 diagnostic:  0.02428328
                                                                       D1 diagnostic:  0.06483044

 Singles amplitudes (print threshold =  0.500E-01):

         I         SYM. A    A   T(IA)

         4         1         1     -0.05876444

 Doubles amplitudes (print threshold =  0.500E-01):

         I         J         SYM. A    SYM. B    A         B      T(IJ, AB)

         3         3         1         1         1         1     -0.13080236
         3         3         1         1         2         2     -0.40858917
         4         3         1         1         1         2      0.24546546
         4         3         1         1         2         1      0.31882501
         4         4         1         1         1         1     -0.46412538
         4         4         1         1         2         2     -0.14048558


 RESULTS
 =======

  Reference energy                    -74.459374547372
  CCSD singlet pair energy             -0.344262515742
  CCSD triplet pair energy              0.020134787828
  CCSD correlation energy              -0.324127450017

 !CCSD total energy                   -74.783501997390

 Timing summary (sec):

 STEP                 CPU(USER)    SYS     CPU(TOT)    WALL
 CCSD iterations         0.09      0.25      0.34      0.35

 Program statistics:

 Available memory in ccsd:               224999931
 Min. memory needed in ccsd:                  1206
 Max. memory used in ccsd:                    1206
 Max. memory used in cckext:                 34508 (15 integral passes)



 **********************************************************************************************************************************
 DATASETS  * FILE   NREC   LENGTH (MB)   RECORD NAMES
              1      19       29.98       500      610      700      900      950      970     1000      129      960     1100   
                                          VAR    BASINP    GEOM    SYMINP    ZMAT    AOBASIS   BASIS     P2S    ABASIS      S 
                                         1400     1410     1200     1210     1080     1600     1650     1700     1380   
                                           T        V       H0       H01     AOSYM     SMH    MOLCAS    OPER     JKOP   

              2       4        2.78       700     1000      520     2100   
                                         GEOM     BASIS   MCVARS     RHF  

 PROGRAMS   *        TOTAL      CCSD    HF-SCF       INT
 CPU TIMES  *         1.45      0.14      0.14      0.74
 REAL TIME  *         6.65 SEC
 DISK USED  *        32.80 MB (local),       73.98 MB (total)
 SF USED    *         0.02 MB
 GA USED    *         0.00 MB       (max)       0.00 MB       (current)
 **********************************************************************************************************************************
 Molecular orbitals read from record     2100.2  Type=RHF/CANONICAL (state 1.1)
 Occupation numbers read from record     2100.2  Type=RHF/RHF (state 1.1)
 Orbital energies read from record       2100.2  Type=RHF/CANONICAL (state 1.1)
 Redundancy group numbers read from rec  2100.2  Type=RHF/RHF (state 1.1)

 CCSD/STO-3G energy=    -74.783501997390

            CCSD          HF-SCF
    -74.78350200    -74.45937455
 **********************************************************************************************************************************
 Molpro calculation terminated
