
 Primary working directories    : /tmp/sjlee/molpro.0rRg1ZFKy2
 Secondary working directories  : /tmp/sjlee/molpro.0rRg1ZFKy2
 Wavefunction directory         : /home/sjlee/wfu/
 Main file repository           : /tmp/sjlee/molpro.0rRg1ZFKy2/

 id        : sjlee

 Nodes             nprocs
 tachus.caltech.edu    1

 Using customized tuning parameters: mindgm=1; mindgv=20; mindgc=4; mindgr=1; noblas=0; minvec=7
 default implementation of scratch files=df  


 Variables initialized (932), CPU time= 0.00 sec
                                                                                 !Title
 memory,225,M
 
 geometry={
 O      0.0000000000   0.0000000000  -0.1294769400
 H      0.0000000000  -1.4941873400   1.0274465100
 H      0.0000000000   1.4941873400   1.0274465100
 }
 set,charge=0.0
 set,multiplicity=1
 
 basis={
 default,sto-3g
 }
 
 {HF}
 {MP2}
 
 {force}
 Commands  initialized (760), CPU time= 0.02 sec, 617 directives.
 Default parameters read. Elapsed time= 0.08 sec

 Checking input...
 Passed
1


                                         ***  PROGRAM SYSTEM MOLPRO  ***
                                       Copyright, TTI GmbH Stuttgart, 2015
                                    Version 2019.2 linked Feb  8 2019 17:08:54


 **********************************************************************************************************************************
 LABEL *                                                                                 
  64 bit serial version                                                                  DATE: 15-Feb-19          TIME: 10:49:37  
 **********************************************************************************************************************************

 SHA1:             6e5d09d908ab7aa4cd5fcccf11b81a835b2872a1
 **********************************************************************************************************************************

Geometry recognized as XYZ

 SETTING CHARGE         =     0.00000000D+00                                  
 SETTING MULTIPLICITY   =         1.00000000                                  

 Variable memory set to  225000000 words,  buffer space 

 SETTING BASIS          =    STO-3G


 Recomputing integrals since basis changed


 Using spherical harmonics

 Library entry O      S STO-3G               selected for orbital group  1
 Library entry O      P STO-3G               selected for orbital group  1
 Library entry H      S STO-3G               selected for orbital group  2


 PROGRAM * SEWARD (Integral evaluation for generally contracted gaussian basis sets)     Author: Roland Lindh, 1990

 Geometry written to block  1 of record 700


 Point group  C2v 



 ATOMIC COORDINATES

 NR  ATOM    CHARGE       X              Y              Z

   1  O       8.00    0.000000000    0.000000000   -0.244675956
   2  H       1.00    0.000000000   -2.823604851    1.941592512
   3  H       1.00    0.000000000    2.823604851    1.941592512

 NUCLEAR CHARGE:                   10
 NUMBER OF PRIMITIVE AOS:          21
 NUMBER OF SYMMETRY AOS:           21
 NUMBER OF CONTRACTIONS:            7   (    4A1  +    1B1  +    2B2  +    0A2  )
 NUMBER OF CORE ORBITALS:           1   (    1A1  +    0B1  +    0B2  +    0A2  )
 NUMBER OF VALENCE ORBITALS:        6   (    3A1  +    1B1  +    2B2  +    0A2  )


 NUCLEAR REPULSION ENERGY    4.65753314

 Eigenvalues of metric

         1 0.731E+00 0.926E+00 0.108E+01 0.128E+01
         2 0.100E+01
         3 0.875E+00 0.111E+01


 Contracted 2-electron integrals neglected if value below      1.0D-11
 AO integral compression algorithm  1   Integral accuracy      1.0D-11

     0.262 MB (compressed) written to integral file (100.0%)


 NUMBER OF SORTED TWO-ELECTRON INTEGRALS:        191.     BUFFER LENGTH:  32768
 NUMBER OF SEGMENTS:   1  SEGMENT LENGTH:        191      RECORD LENGTH: 524288

 Memory used in sort:       0.56 MW

 SORT1 READ         219. AND WROTE         171. INTEGRALS IN      1 RECORDS. CPU TIME:     0.00 SEC, REAL TIME:     0.00 SEC
 SORT2 READ         171. AND WROTE         191. INTEGRALS IN      1 RECORDS. CPU TIME:     0.00 SEC, REAL TIME:     0.00 SEC

 FILE SIZES:   FILE 1:    30.2 MBYTE,  FILE 4:     4.2 MBYTE,   TOTAL:     34.5 MBYTE

 OPERATOR DM      FOR CENTER  0  COORDINATES:    0.000000    0.000000    0.000000


 **********************************************************************************************************************************
 DATASETS  * FILE   NREC   LENGTH (MB)   RECORD NAMES
              1      19       29.97       500      610      700      900      950      970     1000      129      960     1100   
                                          VAR    BASINP    GEOM    SYMINP    ZMAT    AOBASIS   BASIS     P2S    ABASIS      S 
                                         1400     1410     1200     1210     1080     1600     1650     1300     1700   
                                           T        V       H0       H01     AOSYM     SMH    MOLCAS    ERIS     OPER   

 PROGRAMS   *        TOTAL       INT
 CPU TIMES  *         0.59      0.43
 REAL TIME  *         0.85 SEC
 DISK USED  *        34.75 MB
 **********************************************************************************************************************************


 PROGRAM * RHF-SCF (CLOSED SHELL)       Authors: W. Meyer, H.-J. Werner


 NUMBER OF ELECTRONS:       5+    5-
 CONVERGENCE THRESHOLDS:    1.00E-06 (Density)    1.00E-07 (Energy)
 MAX. NUMBER OF ITERATIONS:       60
 INTERPOLATION TYPE:            DIIS
 INTERPOLATION STEPS:              2 (START)      1 (STEP)
 LEVEL SHIFTS:                  0.00 (CLOSED)  0.00 (OPEN) 



 Orbital guess generated from atomic densities. Full valence occupancy:    4   1   2   0

 Molecular orbital dump at record        2100.2

 Initial occupancy:   3   1   1

 ITERATION    DDIFF          GRAD             ENERGY        2-EL.EN.            DIPOLE MOMENTS         DIIS   ORB.
    1      0.000D+00      0.000D+00       -73.75780540     82.722759    0.00000    0.00000    3.58909    0    start
    2      0.000D+00      0.206D+00       -73.63194479     55.811199    0.00000    0.00000   -3.65056    1    diag
    3      0.886D+00      0.206D+00       -74.45309118     69.592563    0.00000    0.00000    0.54524    2    diag
    4      0.532D+00      0.295D-01       -74.45597364     69.285245    0.00000    0.00000    0.49559    3    diag
    5      0.124D-01      0.215D-01       -74.45775599     68.993196    0.00000    0.00000    0.42141    4    diag
    6      0.955D-02      0.147D-01       -74.45879148     68.733474    0.00000    0.00000    0.35449    5    diag
    7      0.871D-02      0.867D-02       -74.45925591     68.515388    0.00000    0.00000    0.29813    6    diag
    8      0.769D-02      0.357D-02       -74.45937447     68.373834    0.00000    0.00000    0.26222    7    diag
    9      0.147D-01      0.840D-04       -74.45937455     68.370668    0.00000    0.00000    0.26145    8    diag
   10      0.461D-03      0.364D-05       -74.45937455     68.370604    0.00000    0.00000    0.26144    9    orth
   11      0.220D-05      0.214D-05       -74.45937455     68.370517    0.00000    0.00000    0.26141    9    diag
   12      0.775D-05      0.158D-07       -74.45937455     68.370516    0.00000    0.00000    0.26141    9    diag
   13      0.246D-07      0.681D-08       -74.45937455     68.370516    0.00000    0.00000    0.26141    0    orth

 Final occupancy:   3   1   1

 !RHF STATE  1.1 Energy               -74.459374546859
 Nuclear energy                         4.65753314
 One-electron energy                 -113.30216553
 Two-electron energy                   34.18525784
 Virial quotient                       -1.00087096
 !RHF STATE  1.1 Dipole moment          0.00000000     0.00000000     0.26141432
 Dipole moment /Debye                   0.00000000     0.00000000     0.66440541

 Orbital energies:

         1.1          2.1          3.1          4.1
    -20.314712    -1.128936    -0.303267     0.124008

         1.2
     -0.408189

         1.3          2.3
     -0.310721     0.163928


 HOMO      3.1    -0.303267 =      -8.2523eV
 LUMO      4.1     0.124008 =       3.3744eV
 LUMO-HOMO         0.427275 =      11.6267eV


 **********************************************************************************************************************************
 DATASETS  * FILE   NREC   LENGTH (MB)   RECORD NAMES
              1      19       29.97       500      610      700      900      950      970     1000      129      960     1100   
                                          VAR    BASINP    GEOM    SYMINP    ZMAT    AOBASIS   BASIS     P2S    ABASIS      S 
                                         1400     1410     1200     1210     1080     1600     1650     1300     1700   
                                           T        V       H0       H01     AOSYM     SMH    MOLCAS    ERIS     OPER   

              2       4        2.78       700     1000      520     2100   
                                         GEOM     BASIS   MCVARS     RHF  

 PROGRAMS   *        TOTAL    HF-SCF       INT
 CPU TIMES  *         0.75      0.15      0.43
 REAL TIME  *         1.04 SEC
 DISK USED  *        34.75 MB
 **********************************************************************************************************************************


 PROGRAM * MP2 (Closed-shell)     Authors: C. Hampel, H.-J. Werner, 1991, M. Deegan, P.J. Knowles, 1992


 Convergence thresholds:  THRVAR = 1.00D-12  THRDEN = 1.00D-08

 Number of core orbitals:           1 (   1   0   0 )
 Number of closed-shell orbitals:   4 (   2   1   1 )
 Number of external orbitals:       2 (   1   0   1 )

 Molecular orbitals read from record     2100.2  Type=RHF/CANONICAL (state 1.1)

 Number of N-1 electron functions:               4
 Number of N-2 electron functions:              10
 Number of singly external CSFs:                 3
 Number of doubly external CSFs:                14
 Total number of CSFs:                          18

 Length of J-op  integral file:               0.00 MB
 Length of K-op  integral file:               0.03 MB

 Integral transformation finished. Total CPU:   0.00 sec, npass=  1  Memory used:   0.07 MW

 Memory needed for MP2:                      0.00 MW

 SCS-MP2 correlation energy:           -0.237213983281   (PS=  1.200000  PT=  0.333333)
 SCS-MP2 total energy:                -74.696588530140


  Reference energy                    -74.459374546859
  MP2 singlet pair energy              -0.182771197974
  MP2 triplet pair energy              -0.028749448468
  MP2 correlation energy               -0.211520646441

 !MP2 total energy                    -74.670895193300

 KEXT needed  1 integral passes. Memory used:   0.03 MW  CPU time:      0.00 sec


 Starting Coupled-perturbed Hartree-Fock, convergence threshold= 1.0D-06

 ITER   MIC  DIIS      VAR         VARC       CPU
   1     0     1    0.11D+00    0.28D-03     0.00
   2     3     2    0.21D-03    0.95D-04     0.00
   3     2     3    0.51D-05    0.13D-08     0.00
   4     3     4    0.49D-07    0.13D-11     0.00

 CPHF convergence reached in  4 macroiterations and    8 microiterations.   Accuracy: 4.9000D-08

 CPHF solution written to record  4100.2

 Dipole moments (unrelaxed):            0.00000000     0.00000000     0.19718261
 Orbital relaxation contribution:      -0.00000000    -0.00000000    -0.13177840
 !MP2 STATE  1.1 Dipole moment          0.00000000     0.00000000     0.06540421
 Dipole moment /Debye                   0.00000000     0.00000000     0.16623003

 CPU-time for density and lagrangian:                  0.00 sec
 CPU-time for coupled-perturbed hartree-fock:          0.00 sec

 MP2 Gradient info saved on record         5200.1


 **********************************************************************************************************************************
 DATASETS  * FILE   NREC   LENGTH (MB)   RECORD NAMES
              1      21       29.97       500      610      700      900      950      970     1000      129      960     1100   
                                          VAR    BASINP    GEOM    SYMINP    ZMAT    AOBASIS   BASIS     P2S    ABASIS      S 
                                         1400     1410     1200     1210     1080     1600     1650     1300     1700     1380   
                                           T        V       H0       H01     AOSYM     SMH    MOLCAS    ERIS     OPER     JKOP   
                                         5200   
                                          MP2  

              2       5        2.78       700     1000      520     2100     4100   
                                         GEOM     BASIS   MCVARS     RHF     CPHF   

 PROGRAMS   *        TOTAL       MP2    HF-SCF       INT
 CPU TIMES  *         0.81      0.06      0.15      0.43
 REAL TIME  *         1.15 SEC
 DISK USED  *        34.75 MB
 **********************************************************************************************************************************


 PROGRAM * ALASKA (Gradient of the energy)     Author: R. Lindh


 MP2      Gradient info restored from record    5200.1

 Number of core orbitals:           1 (   1   0   0 )
 Number of closed-shell orbitals:   4 (   2   1   1 )
 Number of external orbitals:       2 (   1   0   1 )

 Integral thresholds in T2TRAN:            1.0D-10 (PROD)

 Available memory for Transformation: 222957582 words
 Memory needed for incore algorithm:        562 words
 Minimum memory needed:                     516 words

 Memory used for transformation:           0.00 MW
 Available memory for gradients:         224.96 MW

 CPU for transformation:                   0.00 sec
 CPU for integrals and gradient:           0.31 sec
 Total CPU:                                0.31 sec

 Prescreening statistics:
 ========================

 Total number of shell quadruplets:        2.10D+01
 Number of shell quadruplets processed:    2.10D+01 (100.00%)
 krafta ibgrd:                     0

 MP2 GRADIENT FOR STATE 1.1

 Atom          dE/dx               dE/dy               dE/dz

   1         0.000000000         0.000000000        -0.056669886
   2         0.000000000        -0.061857000         0.028334943
   3         0.000000000         0.061857000         0.028334943

 Nuclear force contribution to virial =         0.473215034


 **********************************************************************************************************************************
 DATASETS  * FILE   NREC   LENGTH (MB)   RECORD NAMES
              1      21       29.97       500      610      700      900      950      970     1000      129      960     1100   
                                          VAR    BASINP    GEOM    SYMINP    ZMAT    AOBASIS   BASIS     P2S    ABASIS      S 
                                         1400     1410     1200     1210     1080     1600     1650     1300     1700     1380   
                                           T        V       H0       H01     AOSYM     SMH    MOLCAS    ERIS     OPER     JKOP   
                                         5200   
                                          MP2  

              2       6        2.78       700     1000      520     2100     4100     9001   
                                         GEOM     BASIS   MCVARS     RHF     CPHF    DEN_MP2    

 PROGRAMS   *        TOTAL     FORCE       MP2    HF-SCF       INT
 CPU TIMES  *         1.31      0.49      0.06      0.15      0.43
 REAL TIME  *         2.18 SEC
 DISK USED  *        34.75 MB
 **********************************************************************************************************************************
 Molecular orbitals read from record     2100.2  Type=RHF/CANONICAL (state 1.1)
 Occupation numbers read from record     2100.2  Type=RHF/RHF (state 1.1)
 Orbital energies read from record       2100.2  Type=RHF/CANONICAL (state 1.1)
 Redundancy group numbers read from rec  2100.2  Type=RHF/RHF (state 1.1)

 MP2/STO-3G energy=    -74.670895193300

             MP2          HF-SCF
    -74.67089519    -74.45937455
 **********************************************************************************************************************************
 Molpro calculation terminated
