This is a multi-thread run using 5 threads
/afs/crc.nd.edu/user/k/kyao/qchem85/exe/qcprog.exe .H2O_cluster_meta_work3_3.in.62781.qcin.1 /tmp/qchem62781/

                  Welcome to Q-Chem
     A Quantum Leap Into The Future Of Chemistry


 Q-Chem 4.3, Q-Chem, Inc., Pleasanton, CA (2015)

 Y. Shao,  Z. Gan,  E. Epifanovsky,  A. T. B. Gilbert,  M. Wormit,  
 J. Kussmann,  A. W. Lange,  A. Behn,  J. Deng,  X. Feng,  D. Ghosh,  
 M. Goldey,  P. R. Horn,  L. D. Jacobson,  I. Kaliman,  R. Z. Khaliullin,  
 T. Kus,  A. Landau,  J. Liu,  E. I. Proynov,  Y. M. Rhee,  R. M. Richard,  
 M. A. Rohrdanz,  R. P. Steele,  E. J. Sundstrom,  H. L. Woodcock III,  
 P. M. Zimmerman,  D. Zuev,  B. Albrecht,  E. Alguire,  B. Austin,  
 S. A. Baeppler,  G. J. O. Beran,  Y. A. Bernard,  E. Berquist,  
 K. Brandhorst,  K. B. Bravaya,  S. T. Brown,  D. Casanova,  C.-M. Chang,  
 Y. Chen,  S. H. Chien,  K. D. Closser,  D. L. Crittenden,  M. Diedenhofen,  
 R. A. DiStasio Jr.,  H. Do,  A. D. Dutoi,  R. G. Edgar,  P.-T. Fang,  
 S. Fatehi,  Q. Feng,  L. Fusti-Molnar,  A. Ghysels,  
 A. Golubeva-Zadorozhnaya,  J. Gomes,  A. Gunina,  M. W. D. Hanson-Heine,  
 P. H. P. Harbach,  A. W. Hauser,  E. G. Hohenstein,  Z. C. Holden,  K. Hui,  
 T.-C. Jagau,  H. Ji,  B. Kaduk,  K. Khistyaev,  Jaehoon Kim,  Jihan Kim,  
 R. A. King,  P. Klunzinger,  D. Kosenkov,  T. Kowalczyk,  C. M. Krauter,  
 K. U. Lao,  A. Laurent,  K. V. Lawler,  S. Lehtola,  S. V. Levchenko,  
 C. Y. Lin,  Y.-S. Lin,  F. Liu,  E. Livshits,  R. C. Lochan,  A. Luenser,  
 P. Manohar,  S. F. Manzer,  S.-P. Mao,  N. Mardirossian,  A. V. Marenich,  
 L. A. Martinez-Martinez,  S. A. Maurer,  N. J. Mayhall,  K. Nanda,  
 C. M. Oana,  R. Olivares-Amaya,  D. P. O'Neill,  J. A. Parkhill,  
 T. M. Perrine,  R. Peverati,  P. A. Pieniazek,  F. Plasser,  A. Prociuk,  
 D. R. Rehn,  E. Rosta,  N. J. Russ,  N. Sergueev,  S. M. Sharada,  
 S. Sharma,  D. W. Small,  A. Sodt,  T. Stauch,  T. Stein,  D. Stuck,  
 Y.-C. Su,  A. J. W. Thom,  T. Tsuchimochi,  L. Vogt,  O. Vydrov,  T. Wang,  
 M. A. Watson,  J. Wenzel,  A. White,  C. F. Williams,  V. Vanovschi,  
 S. Yeganeh,  S. R. Yost,  Z.-Q. You,  I. Y. Zhang,  X. Zhang,  Y. Zhao,  
 B. R. Brooks,  G. K. L. Chan,  D. M. Chipman,  C. J. Cramer,  
 W. A. Goddard III,  M. S. Gordon,  W. J. Hehre,  A. Klamt,  
 H. F. Schaefer III,  M. W. Schmidt,  C. D. Sherrill,  D. G. Truhlar,  
 A. Warshel,  X. Xu,  A. Aspuru-Guzik,  R. Baer,  A. T. Bell,  N. A. Besley,  
 J.-D. Chai,  A. Dreuw,  B. D. Dunietz,  T. R. Furlani,  S. R. Gwaltney,  
 C.-P. Hsu,  Y. Jung,  J. Kong,  D. S. Lambrecht,  W. Liang,  C. Ochsenfeld,  
 V. A. Rassolov,  L. V. Slipchenko,  J. E. Subotnik,  T. Van Voorhis,  
 J. M. Herbert,  A. I. Krylov,  P. M. W. Gill,  M. Head-Gordon

 Contributors to earlier versions of Q-Chem not listed above: 
 R. D. Adamson,  J. Baker,  E. F. C. Byrd,  A. K. Chakraborty,  C.-L. Cheng,  
 H. Dachsel,  R. J. Doerksen,  G. Hawkins,  A. Heyden,  S. Hirata,  
 G. Kedziora,  F. J. Keil,  C. Kelley,  P. P. Korambath,  W. Kurlancheek,  
 A. M. Lee,  M. S. Lee,  D. Liotard,  I. Lotan,  P. E. Maslen,  N. Nair,  
 D. Neuhauser,  R. Olson,  B. Peters,  J. Ritchie,  N. E. Schultz,  
 N. Shenvi,  A. C. Simmonett,  K. S. Thanthiriwatte,  Q. Wu,  W. Zhang

 Please cite Q-Chem as follows:
 Y. Shao et al., Mol. Phys. 113, 184-215 (2015)
 DOI: 10.1080/00268976.2014.952696

 Q-Chem 4.3.0 for Intel X86 EM64T Linux

 Parts of Q-Chem use Armadillo 5.200.1 (Boston Tea Smuggler).
 http://arma.sourceforge.net/

 Q-Chem begins on Sat Aug 19 00:26:12 2017  

faceless.crc.nd.edu
Host: 0

     Scratch files written to /tmp/qchem62781//

Checking the input file for inconsistencies... 	...done.

--------------------------------------------------------------
User input:
--------------------------------------------------------------
$molecule
0 1 
O -2.10800480352 1.26712015668 -2.01171611433
H -2.6258681275 1.64854216487 -2.73098674638
H -1.28725353301 0.937439112715 -2.41760446533
O 2.10814083458 1.22895746766 2.01862116489
H 2.67752961402 0.598829022519 1.4586474001
H 1.78806970925 1.98251387264 1.43685727804
O -0.0304207450803 -2.66250548714 1.83438539318
H -0.124973294917 -3.37560114796 2.53594818475
H -0.732233958836 -2.78246646498 1.14982537262
O 3.36740037449 -0.35553864988 0.0832582647326
H 2.82710494964 -1.20289615456 0.0336429202162
H 4.29518581488 -0.491702054352 0.0514057955915
O 2.18353171154 1.35968117017 -1.73498272914
H 2.63830679413 0.696621420989 -1.15681140302
H 1.83808913313 2.03809494332 -1.13398436352
O -0.0941802289542 -0.066414495227 2.88320873391
H 0.674530626743 0.381921353468 2.5994778742
H -0.0429295241382 -0.975052305085 2.61441609949
O 0.178942941197 0.19276597235 -2.8853603462
H 0.916760076251 0.678566216637 -2.43862030372
H 0.39533579142 0.104671625596 -3.81411731402
O 0.163104944151 -2.51065665201 -1.94696742
H 0.0800205293776 -1.56910865613 -2.28732075583
H -0.597560363287 -2.65233908686 -1.38639722579
O -2.19886499711 1.14789774013 2.01676035605
H -2.72162805141 1.37712601212 2.83020879676
H -1.43298558156 0.72727697854 2.35398773359
O -1.91795670012 -2.66719338792 -0.0780970288235
H -2.52587591731 -3.34943330721 -0.201970637403
H -2.43671418322 -1.76941920827 -0.124575976783
O 2.086569754 -2.62009519166 -0.0315501185494
H 1.52709909024 -2.77216575205 0.710522443337
H 1.49766104258 -2.59153282614 -0.821775487402
O 1.24329550618 3.14687027212 0.147211172324
H 1.52386030917 4.07872454266 0.265371196588
H 0.205542087439 3.03169888597 0.125539901378
O -1.37883552932 2.93667970929 0.101559213839
H -1.71613364014 2.34831360463 0.856534727652
H -1.73352505295 2.45094861206 -0.695288472954
O -3.17072114542 -0.386541697563 -0.0717192322731
H -2.86243088859 0.114135574489 -0.817483039486
H -2.94404268833 0.20111395752 0.765520643774
$end

$rem
jobtype force
basis 6-311g**  !test comment
method wB97X-D
thresh 11
symmetry false
! another test comment
sym_ignore true
$end
--------------------------------------------------------------
 ----------------------------------------------------------------
             Standard Nuclear Orientation (Angstroms)
    I     Atom           X                Y                Z
 ----------------------------------------------------------------
    1      O      -2.1080048035     1.2671201567    -2.0117161143
    2      H      -2.6258681275     1.6485421649    -2.7309867464
    3      H      -1.2872535330     0.9374391127    -2.4176044653
    4      O       2.1081408346     1.2289574677     2.0186211649
    5      H       2.6775296140     0.5988290225     1.4586474001
    6      H       1.7880697092     1.9825138726     1.4368572780
    7      O      -0.0304207451    -2.6625054871     1.8343853932
    8      H      -0.1249732949    -3.3756011480     2.5359481848
    9      H      -0.7322339588    -2.7824664650     1.1498253726
   10      O       3.3674003745    -0.3555386499     0.0832582647
   11      H       2.8271049496    -1.2028961546     0.0336429202
   12      H       4.2951858149    -0.4917020544     0.0514057956
   13      O       2.1835317115     1.3596811702    -1.7349827291
   14      H       2.6383067941     0.6966214210    -1.1568114030
   15      H       1.8380891331     2.0380949433    -1.1339843635
   16      O      -0.0941802290    -0.0664144952     2.8832087339
   17      H       0.6745306267     0.3819213535     2.5994778742
   18      H      -0.0429295241    -0.9750523051     2.6144160995
   19      O       0.1789429412     0.1927659724    -2.8853603462
   20      H       0.9167600763     0.6785662166    -2.4386203037
   21      H       0.3953357914     0.1046716256    -3.8141173140
   22      O       0.1631049442    -2.5106566520    -1.9469674200
   23      H       0.0800205294    -1.5691086561    -2.2873207558
   24      H      -0.5975603633    -2.6523390869    -1.3863972258
   25      O      -2.1988649971     1.1478977401     2.0167603560
   26      H      -2.7216280514     1.3771260121     2.8302087968
   27      H      -1.4329855816     0.7272769785     2.3539877336
   28      O      -1.9179567001    -2.6671933879    -0.0780970288
   29      H      -2.5258759173    -3.3494333072    -0.2019706374
   30      H      -2.4367141832    -1.7694192083    -0.1245759768
   31      O       2.0865697540    -2.6200951917    -0.0315501185
   32      H       1.5270990902    -2.7721657520     0.7105224433
   33      H       1.4976610426    -2.5915328261    -0.8217754874
   34      O       1.2432955062     3.1468702721     0.1472111723
   35      H       1.5238603092     4.0787245427     0.2653711966
   36      H       0.2055420874     3.0316988860     0.1255399014
   37      O      -1.3788355293     2.9366797093     0.1015592138
   38      H      -1.7161336401     2.3483136046     0.8565347277
   39      H      -1.7335250529     2.4509486121    -0.6952884730
   40      O      -3.1707211454    -0.3865416976    -0.0717192323
   41      H      -2.8624308886     0.1141355745    -0.8174830395
   42      H      -2.9440426883     0.2011139575     0.7655206438
 ----------------------------------------------------------------
 Nuclear Repulsion Energy =  1289.1697680218 hartrees
 There are       70 alpha and       70 beta electrons
 Requested basis set is 6-311G(d,p)
 There are 182 shells and 420 basis functions

 Total QAlloc Memory Limit   2000 MB
 Mega-Array Size        61 MB
 MEM_STATIC part        62 MB
 A cutoff of  1.0D-11 yielded  10694 shell pairs
 There are     49805 function pairs (     52498 Cartesian)

 -------------------------------------------------------
 OpenMP Integral Computing Module                       
 Release: version 1.0, May 2013, Q-Chem Inc. Pittsburgh 
 -------------------------------------------------------
 Integral Job Info:
 Integral job number is                      11
 Integral operator is                         1
 short-range coefficients              22203600
 long-range coefficients              100000000
 Omega coefficients                         200
 if combine SR and LR in K                    1
 Integral screening is                        0
 Integral computing path is                   2
 max size of driver memory is            800000
 size of driver memory is                593474
 size of scratch memory is              2260544
 max col of scratch BK array               1296
 max len of scratch array in speh3          155
 max len of scratch index in speh4           18
 max int batch size is                      520
 min int batch size is                       52
 fixed nKL is                                52
 max L of basis functions is                  2
 order of int derivative is                   0
 number of shells is                        182
 number of basis is                         434
 number of cartesian basis is               434
 number of contracted shell pairs         10694
 number of primitive shell pairs          22148
 maxK2 (contraction) of shell pair           36
 max number of K2 of shell pair               1
 max number of CS2 of shell pair           1654
 max number of PS2 of shell pair           3600
 mem total for path MDJ                   63012
 -------------------------------------------------------
 Smallest overlap matrix eigenvalue = 9.92E-03

 Scale SEOQF with 1.000000e-01/1.000000e-01/1.000000e-01

 Standard Electronic Orientation quadrupole field applied
 Nucleus-field energy     =     0.0000000139 hartrees
 Guess from superposition of atomic densities
 Warning:  Energy on first SCF cycle will be non-variational
 Long-range K will be added via erf
 Coulomb attenuation parameter = 0.2 bohr**(-1)
 A restricted hybrid HF-DFT SCF calculation will be
 performed using Pulay DIIS extrapolation
 Exchange:     0.2220 Hartree-Fock + 1.0000 wB97X-D + LR-HF
 Correlation:  1.0000 wB97X-D
 Using SG-1 standard quadrature grid
 SCF converges when DIIS error is below 1.0E-08
 using 5 threads for integral computing 
 using 5 threads for integral computing 
 -------------------------------------------------------
 OpenMP BLAS3 based DFT computing Module                
 Release: version 1.0, May 2013, Q-Chem Inc. Pittsburgh 
 -------------------------------------------------------
 ---------------------------------------
  Cycle       Energy         DIIS Error
 ---------------------------------------
    1   -1069.7874701262      2.90E-02
    2   -1069.6483664378      6.10E-03
    3   -1069.7731007388      5.74E-03
    4   -1070.2185515223      2.12E-04
    5   -1070.2191740851      9.01E-05
    6   -1070.2192630481      5.59E-05
    7   -1070.2193071927      3.88E-06
    8   -1070.2193074465      2.79E-06
    9   -1070.2193075600      3.26E-07
   10   -1070.2193075651      1.01E-07
   11   -1070.2193075658      5.01E-08
   12   -1070.2193075666      1.15E-08
   13   -1070.2193075675      3.44E-09 Convergence criterion met
 ---------------------------------------
 SCF time:  CPU 515.65 s  wall 120.42 s
 SCF   energy in the final basis set = -1070.2193075675
 Total energy in the final basis set = -1070.2193075675

 --------------------------------------------------------------

                    Orbital Energies (a.u.)
 --------------------------------------------------------------

 Alpha MOs
 -- Occupied --
-19.270 -19.262 -19.257 -19.252 -19.248 -19.236 -19.232 -19.231
-19.229 -19.212 -19.210 -19.206 -19.193 -19.188  -1.146  -1.140
 -1.128  -1.127  -1.110  -1.107  -1.098  -1.091  -1.088  -1.082
 -1.080  -1.073  -1.072  -1.039  -0.656  -0.642  -0.641  -0.640
 -0.634  -0.629  -0.621  -0.616  -0.605  -0.600  -0.599  -0.598
 -0.597  -0.570  -0.554  -0.524  -0.520  -0.509  -0.494  -0.493
 -0.478  -0.468  -0.463  -0.458  -0.444  -0.443  -0.436  -0.426
 -0.420  -0.418  -0.411  -0.409  -0.403  -0.395  -0.394  -0.389
 -0.385  -0.382  -0.378  -0.372  -0.370  -0.349
 -- Virtual --
  0.080   0.103   0.113   0.122   0.135   0.141   0.146   0.188
  0.206   0.213   0.218   0.239   0.250   0.266   0.270   0.290
  0.298   0.310   0.312   0.325   0.330   0.337   0.345   0.356
  0.358   0.366   0.374   0.381   0.398   0.412   0.418   0.419
  0.429   0.432   0.435   0.438   0.444   0.451   0.461   0.462
  0.465   0.475   0.484   0.488   0.497   0.504   0.517   0.528
  0.530   0.542   0.555   0.557   0.565   0.578   0.584   0.592
  0.792   0.797   0.814   0.816   0.832   0.847   0.860   0.866
  0.882   0.887   0.898   0.909   0.916   0.925   0.931   0.951
  0.956   0.964   0.968   0.973   0.990   0.992   0.996   1.005
  1.006   1.014   1.023   1.027   1.038   1.050   1.078   1.090
  1.108   1.115   1.118   1.137   1.141   1.143   1.155   1.161
  1.168   1.180   1.258   1.267   1.277   1.281   1.296   1.305
  1.314   1.321   1.326   1.328   1.334   1.342   1.349   1.358
  1.362   1.373   1.381   1.387   1.390   1.400   1.405   1.410
  1.412   1.420   1.429   1.432   1.441   1.452   1.456   1.466
  1.470   1.487   1.492   1.495   1.509   1.524   1.526   1.554
  1.559   1.574   1.582   1.594   1.603   1.616   1.633   1.640
  1.646   1.653   1.657   1.671   1.684   1.686   1.701   1.715
  1.719   1.740   1.764   1.786   1.792   1.803   1.814   1.827
  1.841   1.847   1.859   1.866   1.875   1.884   1.915   1.934
  2.030   2.039   2.058   2.077   2.085   2.122   2.137   2.232
  2.252   2.264   2.274   2.282   2.288   2.304   2.314   2.315
  2.328   2.331   2.337   2.346   2.358   2.364   2.368   2.378
  2.387   2.391   2.419   2.428   2.557   2.570   2.576   2.586
  2.588   2.592   2.604   2.604   2.617   2.622   2.629   2.630
  2.638   2.645   2.648   2.650   2.652   2.663   2.683   2.690
  2.703   2.713   2.719   2.733   2.740   2.747   2.767   2.775
  3.129   3.142   3.152   3.155   3.159   3.167   3.182   3.197
  3.203   3.207   3.212   3.214   3.218   3.233   3.239   3.242
  3.253   3.253   3.257   3.266   3.270   3.279   3.286   3.294
  3.307   3.312   3.317   3.327   3.348   3.364   3.366   3.371
  3.379   3.386   3.387   3.399   3.410   3.420   3.435   3.448
  3.469   3.474   3.635   3.643   3.671   3.699   3.709   3.714
  3.725   3.746   3.754   3.772   3.791   3.806   3.824   3.843
  3.879   3.889   3.912   3.920   3.934   3.946   3.948   3.954
  3.965   3.971   3.977   3.982   3.998   4.021   4.912   4.926
  4.942   4.959   4.977   4.997   5.003   5.014   5.031   5.049
  5.057   5.068   5.076   5.108   5.342   5.377   5.395   5.398
  5.412   5.428   5.442   5.455   5.479   5.496   5.512   5.519
  5.528   5.548   5.703   5.712   5.742   5.753   5.777   5.787
  5.810   5.821   5.835   5.850   5.858   5.872   5.895   5.997
 49.950  49.960  49.965  49.992  50.014  50.026  50.038  50.050
 50.058  50.070  50.082  50.100  50.116  50.138
 --------------------------------------------------------------

          Ground-State Mulliken Net Atomic Charges

     Atom                 Charge (a.u.)
  ----------------------------------------
      1 O                    -0.553770
      2 H                     0.281121
      3 H                     0.305218
      4 O                    -0.601112
      5 H                     0.280484
      6 H                     0.273511
      7 O                    -0.558798
      8 H                     0.278992
      9 H                     0.304279
     10 O                    -0.599548
     11 H                     0.334330
     12 H                     0.288554
     13 O                    -0.592510
     14 H                     0.286028
     15 H                     0.283105
     16 O                    -0.595855
     17 H                     0.294589
     18 H                     0.271588
     19 O                    -0.590282
     20 H                     0.331639
     21 H                     0.287255
     22 O                    -0.568921
     23 H                     0.266500
     24 H                     0.261201
     25 O                    -0.566672
     26 H                     0.287840
     27 H                     0.314156
     28 O                    -0.602229
     29 H                     0.280158
     30 H                     0.340579
     31 O                    -0.576893
     32 H                     0.266157
     33 H                     0.293835
     34 O                    -0.609533
     35 H                     0.287684
     36 H                     0.340299
     37 O                    -0.578838
     38 H                     0.290665
     39 H                     0.273285
     40 O                    -0.591084
     41 H                     0.279983
     42 H                     0.303006
  ----------------------------------------
  Sum of atomic charges =    -0.000000

 -----------------------------------------------------------------
                    Cartesian Multipole Moments
 -----------------------------------------------------------------
    Charge (ESU x 10^10)
                -0.0000
    Dipole Moment (Debye)
         X      -4.1221      Y      -0.1266      Z      -1.9566
       Tot       4.5647
    Quadrupole Moments (Debye-Ang)
        XX     -84.1402     XY       4.3434     YY     -82.5919
        XZ      -1.6441     YZ     -12.8905     ZZ     -81.6077
    Octopole Moments (Debye-Ang^2)
       XXX      22.1295    XXY      -2.0214    XYY     -34.9355
       YYY      -3.9075    XXZ       0.1858    XYZ      -0.6541
       YYZ      46.2048    XZZ     -66.6763    YZZ       4.0013
       ZZZ     -71.9058
    Hexadecapole Moments (Debye-Ang^3)
      XXXX   -1862.9225   XXXY     -51.2151   XXYY    -663.8288
      XYYY     308.8275   YYYY   -1854.3897   XXXZ      -1.9829
      XXYZ       5.8414   XYYZ      35.0453   YYYZ    -144.2266
      XXZZ    -548.5936   XYZZ    -111.1853   YYZZ    -570.1631
      XZZZ     -50.2168   YZZZ    -114.4519   ZZZZ   -1393.9482
 -----------------------------------------------------------------
 Calculating analytic gradient of the SCF energy
 Gradient of SCF Energy
            1           2           3           4           5           6
    1   0.0121826  -0.0026932  -0.0086089  -0.0079911   0.0232618  -0.0158863
    2  -0.0085864   0.0030066   0.0060532   0.0039583  -0.0306870   0.0248443
    3   0.0058008  -0.0064936   0.0018748   0.0265875  -0.0139214  -0.0104442
            7           8           9          10          11          12
    1   0.0012330  -0.0005438  -0.0004799   0.0312760  -0.0149011  -0.0166399
    2   0.0299129  -0.0292608  -0.0008880  -0.0107029   0.0025508   0.0115262
    3  -0.0270220   0.0331773  -0.0079892   0.0000260  -0.0025215   0.0013540
           13          14          15          16          17          18
    1  -0.0007683   0.0038321  -0.0043165   0.0452104  -0.0425345  -0.0034694
    2   0.0132051  -0.0122108  -0.0042877   0.0018589  -0.0193150   0.0170745
    3  -0.0028763   0.0054206  -0.0043084  -0.0220806   0.0127629   0.0089051
           19          20          21          22          23          24
    1   0.0144293  -0.0130505  -0.0029257  -0.0101070  -0.0028699   0.0119165
    2   0.0058027  -0.0019018  -0.0021865  -0.0295022   0.0271606  -0.0006665
    3   0.0040763  -0.0016909  -0.0011219   0.0194967  -0.0116261  -0.0074500
           25          26          27          28          29          30
    1   0.0683801  -0.0151282  -0.0510251  -0.0171379   0.0286597  -0.0106678
    2  -0.0339253   0.0055867   0.0304981  -0.0476866   0.0301060   0.0183844
    3  -0.0104695   0.0290536  -0.0173550  -0.0011370   0.0054078  -0.0070765
           31          32          33          34          35          36
    1  -0.0173350   0.0187220  -0.0000029   0.0182350   0.0146182  -0.0277500
    2  -0.0078617   0.0022208   0.0040147  -0.0064763   0.0223520  -0.0153642
    3   0.0270553  -0.0200064  -0.0061954  -0.0016230   0.0036580  -0.0021018
           37          38          39          40          41          42
    1   0.0201023  -0.0122786  -0.0118896  -0.0039881  -0.0052988   0.0082290
    2   0.0338276  -0.0221057  -0.0127335  -0.0141398  -0.0138790   0.0304231
    3  -0.0048628   0.0200387  -0.0156364  -0.0541702   0.0153444   0.0401402
 Max gradient component =       6.838E-02
 RMS gradient           =       1.930E-02
 Gradient time:  CPU 97.63 s  wall 22.38 s
Archival summary:
1\1\faceless.crc.nd.edu\JobtypUnspecified\ProcedureUnspecified\6-311G**\1428\kyao\SatAug1900:28:382017SatAug1900:28:382017\0\\#,JobtypUnspecified,ProcedureUnspecified,6-311G**,\\0,1\O\H,1,0.934037\H,1,0.948946,2,109.215\H,1,1.6439,2,109.92,3,126.432,0\O,4,0.936598,1,177.077,2,-99.3356,0\H,5,0.993743,4,103.829,1,-139.33,0\H,5,1.73703,4,111.431,1,-9.65771,0\O,7,1.04771,5,166.948,4,47.0708,0\H,8,0.949676,7,105.164,5,57.9145,0\H,8,1.5665,7,114.881,5,-59.038,0\O,10,1.03792,8,175.05,7,-5.41741,0\H,11,0.922151,10,107.724,8,-123.574,0\H,11,1.71085,10,115.901,8,14.393,0\O,13,0.987702,11,169.026,10,30.3904,0\H,14,1.00481,13,109.321,11,-152.205,0\H,5,1.73786,4,108.871,1,89.0225,0\O,16,1.01486,5,171.666,4,-62.3771,0\H,17,0.998351,16,101.164,5,-48.9078,0\H,17,1.58741,16,110.805,5,71.526,0\O,19,1.04435,17,177.082,16,120.324,0\H,20,0.980322,19,113.061,17,-0.682827,0\O,2,1.76355,1,178.423,3,-75.988,0\H,22,1.00436,2,106.983,1,-46.3599,0\H,22,1.01727,2,109.804,1,71.6967,0\H,20,1.79572,19,104.255,17,138.471,0\O,25,0.969935,20,172.714,19,99.2029,0\H,26,0.990329,25,105.67,20,13.0753,0\H,26,1.60117,25,106.742,20,-103.526,0\O,28,0.989926,26,175.375,25,155.581,0\H,29,0.957693,28,108.324,26,69.4891,0\H,29,1.7097,28,107.575,26,-159.48,0\O,31,0.973174,29,170.037,28,81.8835,0\H,32,0.964891,31,106.001,29,160.745,0\O,27,1.78224,26,171.627,25,-4.72038,0\H,34,0.938265,27,117.812,26,122.832,0\H,34,1.00618,27,104.075,26,-109.812,0\O,36,1.60034,34,175.047,27,-138.648,0\H,37,0.941703,36,112.694,34,-113.515,0\H,37,0.985944,36,106.463,34,130.277,0\O,39,1.74747,37,166.802,36,106.65,0\H,40,0.955471,39,102.907,37,13.4213,0\H,40,1.00462,39,108.946,37,-98.516,0\\\@

 Total job time:  146.53s(wall), 614.07s(cpu) 
 Sat Aug 19 00:28:38 2017

        *************************************************************
        *                                                           *
        *  Thank you very much for using Q-Chem.  Have a nice day.  *
        *                                                           *
        *************************************************************

