
 Primary working directories    : /tmp/sjlee/molpro.RYlEUZTNaY
 Secondary working directories  : /tmp/sjlee/molpro.RYlEUZTNaY
 Wavefunction directory         : /home/sjlee/wfu/
 Main file repository           : /tmp/sjlee/molpro.RYlEUZTNaY/

 id        : sjlee

 Nodes             nprocs
 tachus.caltech.edu    1

 Using customized tuning parameters: mindgm=1; mindgv=20; mindgc=4; mindgr=1; noblas=0; minvec=7
 default implementation of scratch files=df  


 Variables initialized (934), CPU time= 0.01 sec
 memory,225,M
 
 {orient,noorient}
 {symmetry,nosym}
 
 {bohr}
 geometry={
 O                     0.000000000000     0.000000000000    -0.129476940000
 H                     0.000000000000    -1.494187340000     1.027446510000
 H                     0.000000000000     1.494187340000     1.027446510000
 }
 set,charge=0.0
 set,multiplicity=1
 
 basis={
 default,sto-3g
 }
 
 {rks,B3LYP}
 Commands  initialized (761), CPU time= 0.01 sec, 617 directives.
 Default parameters read. Elapsed time= 0.22 sec

 Checking input...
 Passed
1


                                         ***  PROGRAM SYSTEM MOLPRO  ***
                                       Copyright, TTI GmbH Stuttgart, 2015
                                    Version 2019.2 linked May  2 2019 15:37:00


 **********************************************************************************************************************************
 LABEL *                                                                                 
  64 bit serial version                                                                  DATE: 07-Jun-19          TIME: 14:04:59  
 **********************************************************************************************************************************

 SHA1:             8138d7467d1acbebe89db460979ba3ffe8b2d70c
 **********************************************************************************************************************************

 Variable memory set to  225000000 words,  buffer space 

 ZSYMEL=NOSYM
 ZUNIT=BOHR


Geometry recognized as XYZ

 SETTING CHARGE         =     0.00000000D+00                                  
 SETTING MULTIPLICITY   =         1.00000000                                  
 SETTING BASIS          =    STO-3G


 Recomputing integrals since basis changed


 Using spherical harmonics

 Library entry O      S STO-3G               selected for orbital group  1
 Library entry O      P STO-3G               selected for orbital group  1
 Library entry H      S STO-3G               selected for orbital group  2


 PROGRAM * SEWARD (Integral evaluation for generally contracted gaussian basis sets)     Author: Roland Lindh, 1990

 Geometry written to block  1 of record 700


 Point group  C1  



 ATOMIC COORDINATES

 NR  ATOM    CHARGE       X              Y              Z

   1  O       8.00    0.000000000    0.000000000   -0.129476940
   2  H       1.00    0.000000000   -1.494187340    1.027446510
   3  H       1.00    0.000000000    1.494187340    1.027446510

 Bond lengths in Bohr (Angstrom)

 1-2  1.889726879  1-3  1.889726879
     ( 1.000000399)     ( 1.000000399)

 Bond angles

  2-1-3  104.49999998

 NUCLEAR CHARGE:                   10
 NUMBER OF PRIMITIVE AOS:          21
 NUMBER OF SYMMETRY AOS:           21
 NUMBER OF CONTRACTIONS:            7   (    7A   )
 NUMBER OF CORE ORBITALS:           1   (    1A   )
 NUMBER OF VALENCE ORBITALS:        6   (    6A   )


 NUCLEAR REPULSION ENERGY    8.80146206

 EXTRA SYMMETRY OF AOS IN SYMMETRY 1:   1 1 2 1 1 1 1

 Eigenvalues of metric

         1 0.370E+00 0.448E+00 0.886E+00 0.100E+01 0.110E+01 0.132E+01 0.188E+01


 Contracted 2-electron integrals neglected if value below      1.0D-11
 AO integral compression algorithm  1   Integral accuracy      1.0D-11

     0.262 MB (compressed) written to integral file (100.0%)


 NUMBER OF SORTED TWO-ELECTRON INTEGRALS:        406.     BUFFER LENGTH:  32768
 NUMBER OF SEGMENTS:   1  SEGMENT LENGTH:        406      RECORD LENGTH: 524288

 Memory used in sort:       0.56 MW

 SORT1 READ         543. AND WROTE         228. INTEGRALS IN      1 RECORDS. CPU TIME:     0.00 SEC, REAL TIME:     0.00 SEC
 SORT2 READ         228. AND WROTE         406. INTEGRALS IN      1 RECORDS. CPU TIME:     0.00 SEC, REAL TIME:     0.00 SEC

 FILE SIZES:   FILE 1:    30.2 MBYTE,  FILE 4:     4.2 MBYTE,   TOTAL:     34.5 MBYTE

 OPERATOR DM      FOR CENTER  0  COORDINATES:    0.000000    0.000000    0.000000


 **********************************************************************************************************************************
 DATASETS  * FILE   NREC   LENGTH (MB)   RECORD NAMES
              1      19       29.97       500      610      700      900      950      970     1000      129      960     1100   
                                          VAR    BASINP    GEOM    SYMINP    ZMAT    AOBASIS   BASIS     P2S    ABASIS      S 
                                         1400     1410     1200     1210     1080     1600     1650     1300     1700   
                                           T        V       H0       H01     AOSYM     SMH    MOLCAS    ERIS     OPER   

 PROGRAMS   *        TOTAL       INT
 CPU TIMES  *         0.45      0.32
 REAL TIME  *         0.82 SEC
 DISK USED  *        34.75 MB
 **********************************************************************************************************************************

 Density functional group B3LYP=B88+DIRAC+LYP+VWN5
 Functional: B88(Automatically generated (new) B88)                            Gradient terms: 1
 Functional: DIRAC(Automatically generated (new) DIRAC)                        Gradient terms: 0
 Functional: LYP(Automatically generated (new) LYP)                            Gradient terms: 1
 Functional: VWN5(Automatically generated (new) VWN5)                          Gradient terms: 0
 Use libxcgrid:  F
 Use grid at  1800.2


 Exact exchange will be calculated, factor:  0.2000

 Functional: B88                       Factor:  0.7200
 Functional: DIRAC                     Factor:  0.0800
 Functional: LYP                       Factor:  0.8100
 Functional: VWN5                      Factor:  0.1900

 Generated new metagrid on record  1800.2 with target accuracy 1.0D-06 and 12020 points in CPU time    0.2
 Computed new grid on record 1800.1 in CPU time    0.2
    9421 words reserved for DFT integration

 PROGRAM * RKS-SCF (Restricted closed shell Kohn-Sham)     Authors: W. Meyer, H.-J. Werner, P.J. Knowles, 1993

 NUMBER OF ELECTRONS:       5+    5-    SPACE SYMMETRY=1    SPIN SYMMETRY: Singlet 
 CONVERGENCE THRESHOLDS:    1.00E-05 (Density)    1.00E-06 (Energy)
 MAX. NUMBER OF ITERATIONS:       60
 INTERPOLATION TYPE:            DIIS
 INTERPOLATION STEPS:              2 (START)      1 (STEP)
 LEVEL SHIFTS:                  0.00 (CLOSED)  0.00 (OPEN) 



 Use fine grid record 1800.2 for energy threshold  1.0D-06
 Orbital guess generated from atomic densities. Full valence occupancy:    5

 Molecular orbital dump at record        2100.2

 Initial occupancy:   5

 ITERATION    DDIFF          GRAD             ENERGY        2-EL.EN.            DIPOLE MOMENTS         DIIS   ORB.
    1      0.000D+00      0.000D+00       -75.18059793     94.231843   -0.00000    0.00000    1.26289    0    start
    2      0.000D+00      0.835D-01       -75.21794317     87.307086   -0.00000    0.00000    0.10454    1    diag
    3      0.240D+00      0.685D-01       -75.28245430     90.329829   -0.00000    0.00000    0.63629    2    diag
    4      0.110D+00      0.678D-03       -75.28246115     90.303581   -0.00000   -0.00000    0.63187    3    diag
    5      0.106D-02      0.230D-04       -75.28246116     90.303377   -0.00000    0.00000    0.63193    4    diag
    6      0.765D-04      0.330D-05       -75.28246116     90.303262   -0.00000   -0.00000    0.63191    5    diag
    7      0.585D-05      0.874D-07       -75.28246116     90.303257   -0.00000    0.00000    0.63191    0    orth

 Final occupancy:   5

 !RKS STATE  1.1 Energy               -75.282461162126
 Nuclear energy                         8.80146206
 One-electron energy                 -121.66602782
 Two-electron energy                   45.15162862
 SCF exchange energy                   -9.06389188     Factor= 0.2000
 Density functional                    -7.56952402     B88=-9.04883443 DIRAC=-8.16894310 LYP=-0.33763443 VWN5=-0.67033624
 Virial quotient                       -1.01034440
 !RKS STATE  1.1 Dipole moment         -0.00000000     0.00000000     0.63191050
 Dipole moment /Debye                  -0.00000000     0.00000000     1.60605110

 Orbital energies:

         1.1          2.1          3.1          4.1          5.1          6.1          7.1
    -18.836775    -0.912840    -0.423445    -0.229739    -0.138771     0.321500     0.431111


 HOMO      5.1    -0.138771 =      -3.7762eV
 LUMO      6.1     0.321500 =       8.7485eV
 LUMO-HOMO         0.460272 =      12.5246eV


 **********************************************************************************************************************************
 DATASETS  * FILE   NREC   LENGTH (MB)   RECORD NAMES
              1      20       30.36       500      610      700      900      950      970     1000      129      960     1100   
                                          VAR    BASINP    GEOM    SYMINP    ZMAT    AOBASIS   BASIS     P2S    ABASIS      S 
                                         1400     1410     1200     1210     1080     1600     1650     1300     1700     1800   
                                           T        V       H0       H01     AOSYM     SMH    MOLCAS    ERIS     OPER     GRID   

              2       5        2.78       700     1000      520     1800     2100   
                                         GEOM     BASIS   MCVARS    GRID      RKS  

 PROGRAMS   *        TOTAL   RKS-SCF       INT
 CPU TIMES  *         1.06      0.61      0.32
 REAL TIME  *         1.66 SEC
 DISK USED  *        34.75 MB
 **********************************************************************************************************************************
 Molecular orbitals read from record     2100.2  Type=RKS/CANONICAL (state 1.1)
 Occupation numbers read from record     2100.2  Type=RKS/RHF (state 1.1)
 Orbital energies read from record       2100.2  Type=RKS/CANONICAL (state 1.1)
 Redundancy group numbers read from rec  2100.2  Type=RKS/RHF (state 1.1)

 RB3LYP/STO-3G energy=    -75.282461162126

         RKS-SCF
    -75.28246116
 **********************************************************************************************************************************
 Molpro calculation terminated
