
 Primary working directories    : /tmp/sjlee/molpro.LuNr3jAWsi
 Secondary working directories  : /tmp/sjlee/molpro.LuNr3jAWsi
 Wavefunction directory         : /home/sjlee/wfu/
 Main file repository           : /tmp/sjlee/molpro.LuNr3jAWsi/

 id        : sjlee

 Nodes             nprocs
 tachus.caltech.edu    4

 Using customized tuning parameters: mindgm=1; mindgv=20; mindgc=4; mindgr=1; noblas=0; minvec=7
 default implementation of scratch files=sf  


 Variables initialized (934), CPU time= 0.03 sec
 memory,225,M
 
 {orient,noorient}
 {symmetry,nosym}
 
 {bohr}
 geometry={
 O                     0.000000000000     0.000000000000    -0.129476940000
 H                     0.000000000000    -1.494187340000     1.027446510000
 H                     0.000000000000     1.494187340000     1.027446510000
 }
 set,charge=0.0
 set,multiplicity=1
 
 basis={
 default,sto-3g
 }
 
 {HF}
 {CCSD(T)}
 
 {force}
 Commands  initialized (761), CPU time= 0.02 sec, 617 directives.
 Default parameters read. Elapsed time= 0.16 sec

 Checking input...
 Passed
1


                                         ***  PROGRAM SYSTEM MOLPRO  ***
                                       Copyright, TTI GmbH Stuttgart, 2015
                                    Version 2019.2 linked May  2 2019 15:37:00


 **********************************************************************************************************************************
 LABEL *                                                                                 
  64 bit mpp version                                                                     DATE: 24-Jul-19          TIME: 15:25:49  
 **********************************************************************************************************************************

 SHA1:             8138d7467d1acbebe89db460979ba3ffe8b2d70c
 **********************************************************************************************************************************

 Variable memory set to  225000000 words,  buffer space 

 ZSYMEL=NOSYM
 ZUNIT=BOHR


Geometry recognized as XYZ

 SETTING CHARGE         =     0.00000000D+00                                  
 SETTING MULTIPLICITY   =         1.00000000                                  
 SETTING BASIS          =    STO-3G


 Recomputing integrals since basis changed


 Using spherical harmonics

 Library entry O      S STO-3G               selected for orbital group  1
 Library entry O      P STO-3G               selected for orbital group  1
 Library entry H      S STO-3G               selected for orbital group  2


 PROGRAM * SEWARD (Integral evaluation for generally contracted gaussian basis sets)     Author: Roland Lindh, 1990

 Geometry written to block  1 of record 700


 Point group  C1  



 ATOMIC COORDINATES

 NR  ATOM    CHARGE       X              Y              Z

   1  O       8.00    0.000000000    0.000000000   -0.129476940
   2  H       1.00    0.000000000   -1.494187340    1.027446510
   3  H       1.00    0.000000000    1.494187340    1.027446510

 Bond lengths in Bohr (Angstrom)

 1-2  1.889726879  1-3  1.889726879
     ( 1.000000399)     ( 1.000000399)

 Bond angles

  2-1-3  104.49999998

 NUCLEAR CHARGE:                   10
 NUMBER OF PRIMITIVE AOS:          21
 NUMBER OF SYMMETRY AOS:           21
 NUMBER OF CONTRACTIONS:            7   (    7A   )
 NUMBER OF CORE ORBITALS:           1   (    1A   )
 NUMBER OF VALENCE ORBITALS:        6   (    6A   )


 NUCLEAR REPULSION ENERGY    8.80146206

 EXTRA SYMMETRY OF AOS IN SYMMETRY 1:   1 1 2 1 1 1 1

 Eigenvalues of metric

         1 0.370E+00 0.448E+00 0.886E+00 0.100E+01 0.110E+01 0.132E+01 0.188E+01


 Contracted 2-electron integrals neglected if value below      1.0D-11
 AO integral compression algorithm  1   Integral accuracy      1.0D-11

     1.049 MB (compressed) written to integral file (100.0%)

     Node minimum: 0.262 MB, node maximum: 0.262 MB


 NUMBER OF SORTED TWO-ELECTRON INTEGRALS:        112.     BUFFER LENGTH:  32768
 NUMBER OF SEGMENTS:   1  SEGMENT LENGTH:        112      RECORD LENGTH: 524288

 Memory used in sort:       0.56 MW

 SORT1 READ         543. AND WROTE          60. INTEGRALS IN      1 RECORDS. CPU TIME:     0.00 SEC, REAL TIME:     0.01 SEC
 SORT2 READ         228. AND WROTE         406. INTEGRALS IN      4 RECORDS. CPU TIME:     0.00 SEC, REAL TIME:     0.01 SEC

 Node minimum:          91.  Node maximum:         112. integrals

 OPERATOR DM      FOR CENTER  0  COORDINATES:    0.000000    0.000000    0.000000


 **********************************************************************************************************************************
 DATASETS  * FILE   NREC   LENGTH (MB)   RECORD NAMES
              1      18       29.97       500      610      700      900      950      970     1000      129      960     1100   
                                          VAR    BASINP    GEOM    SYMINP    ZMAT    AOBASIS   BASIS     P2S    ABASIS      S 
                                         1400     1410     1200     1210     1080     1600     1650     1700   
                                           T        V       H0       H01     AOSYM     SMH    MOLCAS    OPER   

 PROGRAMS   *        TOTAL       INT
 CPU TIMES  *         0.55      0.33
 REAL TIME  *         0.80 SEC
 DISK USED  *        30.26 MB (local),      137.83 MB (total)
 GA USED    *         0.00 MB       (max)       0.00 MB       (current)
 **********************************************************************************************************************************


 PROGRAM * RHF-SCF (CLOSED SHELL)       Authors: W. Meyer, H.-J. Werner


 NUMBER OF ELECTRONS:       5+    5-    SPACE SYMMETRY=1    SPIN SYMMETRY: Singlet 
 CONVERGENCE THRESHOLDS:    1.00E-06 (Density)    1.00E-07 (Energy)
 MAX. NUMBER OF ITERATIONS:       60
 INTERPOLATION TYPE:            DIIS
 INTERPOLATION STEPS:              2 (START)      1 (STEP)
 LEVEL SHIFTS:                  0.00 (CLOSED)  0.00 (OPEN) 



 Orbital guess generated from atomic densities. Full valence occupancy:    5

 Molecular orbital dump at record        2100.2

 Initial occupancy:   5

 ITERATION    DDIFF          GRAD             ENERGY        2-EL.EN.            DIPOLE MOMENTS         DIIS   ORB.
    1      0.000D+00      0.000D+00       -74.86380095     79.459600   -0.00000   -0.00000    1.28957    0    start
    2      0.000D+00      0.810D-01       -74.96352339     75.492370   -0.00000   -0.00000    0.61950    1    diag
    3      0.141D+00      0.985D-02       -74.96463086     75.823916   -0.00000   -0.00000    0.66263    2    diag
    4      0.112D-01      0.139D-02       -74.96466226     75.821106   -0.00000    0.00000    0.65680    3    diag
    5      0.290D-02      0.909D-04       -74.96466250     75.821628   -0.00000    0.00000    0.65672    4    diag
    6      0.256D-03      0.198D-04       -74.96466252     75.821274   -0.00000    0.00000    0.65662    5    diag
    7      0.747D-04      0.680D-06       -74.96466252     75.821303   -0.00000    0.00000    0.65663    6    diag
    8      0.167D-05      0.650D-09       -74.96466252     75.821303   -0.00000   -0.00000    0.65663    6    diag
    9      0.234D-08      0.314D-12       -74.96466252     75.821303   -0.00000    0.00000    0.65663    0    orth

 Final occupancy:   5

 !RHF STATE  1.1 Energy               -74.964662516694
 Nuclear energy                         8.80146206
 One-electron energy                 -121.67677627
 Two-electron energy                   37.91065169
 Virial quotient                       -1.00628987
 !RHF STATE  1.1 Dipole moment         -0.00000000     0.00000000     0.65662910
 Dipole moment /Debye                  -0.00000000     0.00000000     1.66887539

 Orbital energies:

         1.1          2.1          3.1          4.1          5.1          6.1          7.1
    -20.247270    -1.247774    -0.595851    -0.447884    -0.388956     0.564152     0.693007


 HOMO      5.1    -0.388956 =     -10.5840eV
 LUMO      6.1     0.564152 =      15.3514eV
 LUMO-HOMO         0.953108 =      25.9354eV


 **********************************************************************************************************************************
 DATASETS  * FILE   NREC   LENGTH (MB)   RECORD NAMES
              1      18       29.97       500      610      700      900      950      970     1000      129      960     1100   
                                          VAR    BASINP    GEOM    SYMINP    ZMAT    AOBASIS   BASIS     P2S    ABASIS      S 
                                         1400     1410     1200     1210     1080     1600     1650     1700   
                                           T        V       H0       H01     AOSYM     SMH    MOLCAS    OPER   

              2       4        2.78       700     1000      520     2100   
                                         GEOM     BASIS   MCVARS     RHF  

 PROGRAMS   *        TOTAL    HF-SCF       INT
 CPU TIMES  *         0.68      0.12      0.33
 REAL TIME  *         0.96 SEC
 DISK USED  *        32.79 MB (local),      147.92 MB (total)
 SF USED    *         0.00 MB
 GA USED    *         0.00 MB       (max)       0.00 MB       (current)
 **********************************************************************************************************************************


 PROGRAM * CCSD (Closed-shell coupled cluster)     Authors: C. Hampel, H.-J. Werner, 1991, M. Deegan, P.J. Knowles, 1992


 Convergence thresholds:  THRVAR = 1.00D-12  THRDEN = 1.00D-08

 CCSD(T)     terms to be evaluated (factor= 1.000)


 Using ITF CCSD(T) gradient implementation

 Number of core orbitals:           1 (   1 )
 Number of closed-shell orbitals:   4 (   4 )
 Number of external orbitals:       2 (   2 )

 Molecular orbitals read from record     2100.2  Type=RHF/CANONICAL (state 1.1)

 Integral transformation finished. Total CPU:   0.00 sec, npass=  1  Memory used:   0.07 MW
 Time for re-packing tensors:             0.00 sec
  Reference energy:                   -74.964662516694

  MP2 correlation energy:              -0.039064966898
  MP2 total energy:                   -75.003727483592

 ITER.      SQ.NORM     CORR.ENERGY   TOTAL ENERGY   ENERGY CHANGE        DEN1      VAR(S)    VAR(P)  DIIS     TIME
   1      1.02434485    -0.05280295   -75.01746547    -0.01373798    -0.00974665  9.24e-05  1.15e-03  1  1     0.00
   2      1.02877482    -0.05460947   -75.01927198    -0.00180652    -0.00367372  1.78e-06  2.11e-04  2  2     0.01
   3      1.03097478    -0.05496332   -75.01962584    -0.00035385    -0.00156162  2.63e-07  3.00e-05  3  3     0.01
   4      1.03187592    -0.05498864   -75.01965116    -0.00002532    -0.00063022  6.09e-08  4.09e-06  4  4     0.02
   5      1.03214808    -0.05498354   -75.01964606     0.00000510    -0.00020912  1.18e-08  4.44e-07  5  5     0.03
   6      1.03222320    -0.05498077   -75.01964328     0.00000277    -0.00006311  7.08e-10  4.00e-08  6  0     0.03
   7      1.03224798    -0.05497979   -75.01964231     0.00000097    -0.00002036  6.59e-11  4.26e-09  6  1     0.04
   8      1.03225543    -0.05497945   -75.01964197     0.00000034    -0.00000647  2.19e-12  4.32e-10  6  2     0.04
   9      1.03225812    -0.05497934   -75.01964186     0.00000011    -0.00000209  5.54e-13  4.70e-11  6  3     0.05
  10      1.03225895    -0.05497931   -75.01964182     0.00000004    -0.00000065  7.18e-14  4.60e-12  6  4     0.05
  11      1.03225919    -0.05497930   -75.01964181     0.00000001    -0.00000020  1.16e-15  4.10e-13  6  5     0.06
  12      1.03225927    -0.05497929   -75.01964181     0.00000000    -0.00000007  4.21e-17  4.47e-14           0.06

 Norm of t1 vector:      0.02263668     S-energy:      0.00000000   T1 diagnostic:  0.00565917

 Time per iteration:                      0.00 sec

 RESULTS
 =======

  Reference energy:                   -74.964662516694
  CCSD correlation energy:             -0.054979292959
  CCSD total energy:                  -75.019641809653

  Triples (T) contribution:            -0.000075911176
  Total correlation energy:            -0.055055204135
  CCSD[T] total energy:               -75.019730335936
 !CCSD(T) total energy:               -75.019717720829

 Starting CP-CCSD(T) iterations.   Author: W. Gyorffy (2015)

         ITER.       NRM1          NRM2     VAR1+VAR2       CPU  DIIS
 iter.     1     0.00040880     0.03827146 1.91667417e-05      0.01  1  1
 iter.     2     0.00037867     0.03800489 1.41888199e-06      0.01  2  2
 iter.     3     0.00036148     0.03788790 9.13286478e-08      0.02  3  3
 iter.     4     0.00035440     0.03786869 4.18685706e-09      0.02  4  4
 iter.     5     0.00035246     0.03786525 1.99950536e-10      0.03  5  5
 iter.     6     0.00035202     0.03786466 2.34133040e-12      0.03  6  0
 iter.     7     0.00035198     0.03786460 8.65205312e-14      0.04


 Time per iteration:                      0.01 sec


 Starting Coupled-perturbed Hartree-Fock, convergence threshold= 1.0D-06

 ITER   MIC  DIIS      VAR         VARC       CPU
   1     0     1    0.20D-03    0.18D-03     0.00
   2     2     2    0.54D-05    0.38D-09     0.00
   3     2     3    0.38D-07    0.59D-10     0.00

 CPHF convergence reached in  3 macroiterations and    4 microiterations.   Accuracy: 3.8140D-08

 CPHF solution written to record  8500.2

 Dipole moments (unrelaxed):            0.00000000    -0.00000000     0.60597185
 Orbital relaxation contribution:      -0.00000000     0.00000000     0.00054505
 !CCSD(T) STATE  1.1 Dipole moment     -0.00000000     0.00000000     0.60651690
 Dipole moment /Debye                  -0.00000000     0.00000000     1.54151122

 CPU-time for coupled-perturbed hartree-fock:          0.00 sec

 Number of N-1 electron functions:               4
 Number of N-2 electron functions:              10
 Number of singly external CSFs:                 8
 Number of doubly external CSFs:                36
 Total number of CSFs:                          45

 CCSD(T) Gradient info saved on record        55555.1




 **********************************************************************************************************************************
 DATASETS  * FILE   NREC   LENGTH (MB)   RECORD NAMES
              1      20       29.99       500      610      700      900      950      970     1000      129      960     1100   
                                          VAR    BASINP    GEOM    SYMINP    ZMAT    AOBASIS   BASIS     P2S    ABASIS      S 
                                         1400     1410     1200     1210     1080     1600     1650     1700     1380    55555   
                                           T        V       H0       H01     AOSYM     SMH    MOLCAS    OPER     JKOP    CCSD(T)    

              2       6        2.78       700     1000      520     2100     3791     8500   
                                         GEOM     BASIS   MCVARS     RHF              CPHF   

 PROGRAMS   *        TOTAL   CCSD(T)    HF-SCF       INT
 CPU TIMES  *         0.89      0.20      0.12      0.33
 REAL TIME  *         1.27 SEC
 DISK USED  *        32.81 MB (local),      148.03 MB (total)
 SF USED    *         0.16 MB
 GA USED    *         0.00 MB       (max)       0.00 MB       (current)
 **********************************************************************************************************************************


 PROGRAM * ALASKA (Gradient of the energy)     Author: R. Lindh


 CCSD(T) Gradient info restored from record   55555.1

 Number of core orbitals:           1 (   1 )
 Number of closed-shell orbitals:   4 (   4 )
 Number of external orbitals:       2 (   2 )

 Integral thresholds in T2TRAN:            1.0D-10 (PROD)

 4-index transformation of triples contribution
    CPU used (ia|bd)=>(ia|AB):     0.00 secs
    algorithm:                     fully in-core
        memory used:               0.00 MW
    CPU used (ia|AB)=>(AB|ia):     0.00 secs
    CPU used (AB|ia)=>(AB|CD):     0.01 secs

 Available memory for Transformation: 222962879 words
 Memory needed for incore algorithm:       5953 words
 Minimum memory needed:                    4613 words

 Memory used for transformation:           0.01 MW
 Available memory for gradients:         224.95 MW

 CPU for transformation:                   0.00 sec
 CPU for integrals and gradient:           0.30 sec
 Total CPU:                                0.64 sec

 Prescreening statistics:
 ========================

 Total number of shell quadruplets:        2.20D+01
 Number of shell quadruplets processed:    2.20D+01 (100.00%)

 CCSD(T) GRADIENT FOR STATE 1.1

 Atom          dE/dx               dE/dy               dE/dz

   1        -0.000000000         0.000000000         0.054922174
   2         0.000000000         0.006798957        -0.027461087
   3        -0.000000000        -0.006798957        -0.027461087

 Nuclear force contribution to virial =        -0.083858582


 **********************************************************************************************************************************
 DATASETS  * FILE   NREC   LENGTH (MB)   RECORD NAMES
              1      20       29.99       500      610      700      900      950      970     1000      129      960     1100   
                                          VAR    BASINP    GEOM    SYMINP    ZMAT    AOBASIS   BASIS     P2S    ABASIS      S 
                                         1400     1410     1200     1210     1080     1600     1650     1700     1380    55555   
                                           T        V       H0       H01     AOSYM     SMH    MOLCAS    OPER     JKOP    CCSD(T)    

              2       8        2.79       700     1000      520     2100     3791     8500     9001     9876   
                                         GEOM     BASIS   MCVARS     RHF              CPHF    DEN_MP2   TGRAD   

              5       1        0.02      3791   
                                         TGRAD   

 PROGRAMS   *        TOTAL     FORCE   CCSD(T)    HF-SCF       INT
 CPU TIMES  *         1.72      0.82      0.20      0.12      0.33
 REAL TIME  *         2.60 SEC
 DISK USED  *        32.82 MB (local),      148.04 MB (total)
 SF USED    *         0.16 MB
 GA USED    *         0.00 MB       (max)       0.00 MB       (current)
 **********************************************************************************************************************************
 Molecular orbitals read from record     2100.2  Type=RHF/CANONICAL (state 1.1)
 Occupation numbers read from record     2100.2  Type=RHF/RHF (state 1.1)
 Orbital energies read from record       2100.2  Type=RHF/CANONICAL (state 1.1)
 Redundancy group numbers read from rec  2100.2  Type=RHF/RHF (state 1.1)

 CCSD(T)/STO-3G energy=    -75.019717720829

         CCSD(T)          HF-SCF
    -75.01971772    -74.96466252
 **********************************************************************************************************************************
 Molpro calculation terminated
