
   OpenMP run-time library returned nthreads =  2
 operating system is UNIX !

 dscf (southgeorgia) : TURBOMOLE V7.3 ( 22142 ) 4 Jul 2018 at 18:12:42
 Copyright (C) 2018 TURBOMOLE GmbH, Karlsruhe


    2019-10-29 09:56:50.465 



                             d s c f - program

                   idea & directorship : reinhart ahlrichs
                   program development : marco haeser
                                         michael baer
                           dft version : oliver treutler


                          quantum chemistry group
                          universitaet  karlsruhe
                                  germany




                          References             
                                                 
          TURBOMOLE:                             
              R. Ahlrichs, M. Baer, M. Haeser, H. Horn, and
              C. Koelmel
              Electronic structure calculations on workstation
              computers: the program system TURBOMOLE
              Chem. Phys. Lett. 162: 165 (1989)
          Density Functional:                              
              O. Treutler and R. Ahlrichs                      
              Efficient Molecular Numerical Integration Schemes
              J. Chem. Phys. 102: 346 (1995)                   
          Parallel Version:                                
              Performance of parallel TURBOMOLE for Density    
              Functional Calculations                          
              M. v. Arnim and R. Ahlrichs                      
              J. Comp. Chem. 19: 1746 (1998)                   
                                         




              +--------------------------------------------------+
              | Atomic coordinate, charge and isotop information |
              +--------------------------------------------------+

                    atomic coordinates            atom    charge  isotop
          0.00000000    0.00000000   -0.12947694    o      8.000     0
          0.00000000   -1.49418734    1.02744651    h      1.000     0
          0.00000000    1.49418734    1.02744651    h      1.000     0
 
       center of nuclear mass  :    0.00000000    0.00000000   -0.00001570
       center of nuclear charge:    0.00000000    0.00000000    0.10190775

   *************************************************************************
   QCEngine Turbomole                                                       
   *************************************************************************



              +--------------------------------------------------+
              |               basis set information              |
              +--------------------------------------------------+

              we will work with the 1s 3p 5d 7f 9g ... basis set
              ...i.e. with spherical basis functions...

   type   atoms  prim   cont   basis
   ---------------------------------------------------------------------------
    o        1     24     14   def2-SVP   [3s2p1d|7s4p1d]
    h        2      7      5   def2-SVP   [2s1p|4s1p]
   ---------------------------------------------------------------------------
   total:    3     38     24
   ---------------------------------------------------------------------------

   total number of primitive shells          :   17
   total number of contracted shells         :   12
   total number of cartesian basis functions :   25
   total number of SCF-basis functions       :   24


 integral neglect threshold       :  0.13E-10
 integral storage threshold THIZE :  0.10E-04
 integral storage threshold THIME :         5


 symmetry group of the molecule :   c1 

 the group has the following generators :
   c1(z)

    1 symmetry operations found

 there are 1 real representations :   a   

 maximum number of shells which are related by symmetry :  1


    mo occupation :
   irrep   mo's   occupied
    a       24        5
 
 number of basis functions   :                     24
 number of occupied orbitals :                      5
 

 automatic virtual orbital shift switched on 
      shift if e(lumo)-e(homo) < 0.10000000    


          ------------------------
          nuclear repulsion energy  :   8.80146205625    
          ------------------------


         -----------------
         -S,T+V- integrals
         -----------------

 1e-integrals will be neglected if expon. factor < 0.133678E-11
 
   Difference densities algorithm switched on.
   The maximal number of linear combinations of
   difference densities is                    20 .

 DIIS switched on: error vector is FDS-SDF
 Max. Iterations for DIIS is     :   5
 DIIS matrix (see manual) 
    Scaling factor of diagonals  :  1.200
    threshold for scaling factor :  0.000

 scf convergence criterion : increment of total energy < .1000000D-07
                  and increment of one-electron energy < .1000000D-04

  MOs are in ASCII format !


 reading orbital data $scfmo  from file mos
 orbital characterization : expanded
 mo provided and orthogonalized by Cholesky decomposition

 DSCF restart information will be dumped onto file mos

 
                                              current damping :  0.300
 ITERATION  ENERGY          1e-ENERGY        2e-ENERGY     NORM[dD(SAO)]  TOL
   1  -75.741527779117    -123.80966488     39.266675041    0.000D+00 0.133D-10
          max. resid. norm for Fia-block=  2.815D-01 for orbital      4a         
          max. resid. fock norm         =  1.548D+00 for orbital     10a         
          Delta Eig. =    47.9536513414 eV 
 
                                              current damping :  0.250
 ITERATION  ENERGY          1e-ENERGY        2e-ENERGY     NORM[dD(SAO)]  TOL
   2  -75.933097028971    -122.13127215     37.396713062    0.518D+00 0.885D-11
          Norm of current diis error: 0.34565    
          max. resid. norm for Fia-block=  9.171D-02 for orbital      1a         
          max. resid. fock norm         =  1.102D-01 for orbital     18a         
          Delta Eig. =     9.1913160300 eV 
 
                                              current damping :  0.200
 ITERATION  ENERGY          1e-ENERGY        2e-ENERGY     NORM[dD(SAO)]  TOL
   3  -75.951594723455    -122.46272320     37.709666417    0.171D+00 0.698D-11
          Norm of current diis error: 0.12813    
          max. resid. norm for Fia-block=  3.429D-02 for orbital      4a         
          max. resid. fock norm         =  3.703D-02 for orbital      9a         
          Delta Eig. =     2.6966294125 eV 
 
                                              current damping :  0.250
 ITERATION  ENERGY          1e-ENERGY        2e-ENERGY     NORM[dD(SAO)]  TOL
   4  -75.954873573064    -122.31745771     37.561122081    0.353D-01 0.611D-11
          Norm of current diis error: 0.40537E-01
          max. resid. norm for Fia-block=  1.251D-02 for orbital      4a         
          max. resid. fock norm         =  1.304D-02 for orbital      4a         
          Delta Eig. =     0.3810747590 eV 
 
                                              current damping :  0.300
 ITERATION  ENERGY          1e-ENERGY        2e-ENERGY     NORM[dD(SAO)]  TOL
   5  -75.955289006509    -122.34196630     37.585215233    0.766D-02 0.559D-11
          Norm of current diis error: 0.14905E-01
          max. resid. norm for Fia-block=  6.019D-03 for orbital      4a         
          max. resid. fock norm         =  6.167D-03 for orbital      4a         
 mo-orthogonalization: Cholesky decomposition
          Delta Eig. =     0.0719638390 eV 
 
                                              current damping :  0.350
 ITERATION  ENERGY          1e-ENERGY        2e-ENERGY     NORM[dD(SAO)]  TOL
   6  -75.955355674500    -122.33969472     37.582876992    0.103D-02 0.515D-11
          Norm of current diis error: 0.57821E-02
          max. resid. norm for Fia-block=  2.570D-03 for orbital      4a         
          max. resid. fock norm         =  2.635D-03 for orbital      4a         
          Delta Eig. =     0.0172270810 eV 
 
                                              current damping :  0.400
 ITERATION  ENERGY          1e-ENERGY        2e-ENERGY     NORM[dD(SAO)]  TOL
   7  -75.955367047288    -122.33983310     37.583003997    0.142D-03 0.479D-11
          Norm of current diis error: 0.23805E-02
          max. resid. norm for Fia-block=  1.151D-03 for orbital      4a         
          max. resid. fock norm         =  1.174D-03 for orbital      4a         
          Delta Eig. =     0.0054038082 eV 
 
                                              current damping :  0.450
 ITERATION  ENERGY          1e-ENERGY        2e-ENERGY     NORM[dD(SAO)]  TOL
   8  -75.955369100318    -122.33943730     37.582606142    0.188D-04 0.449D-11
          Norm of current diis error: 0.10017E-02
          max. resid. norm for Fia-block=  5.006D-04 for orbital      4a         
          max. resid. fock norm         =  5.110D-04 for orbital      4a         
          Delta Eig. =     0.0028635244 eV 
 
                                              current damping :  0.500
 ITERATION  ENERGY          1e-ENERGY        2e-ENERGY     NORM[dD(SAO)]  TOL
   9  -75.955369471234    -122.33947599     37.582644467    0.718D-05 0.424D-11
          Norm of current diis error: 0.41334E-03
          max. resid. norm for Fia-block=  2.170D-04 for orbital      4a         
          max. resid. fock norm         =  2.202D-04 for orbital      4a         
          Delta Eig. =     0.0011916788 eV 
 
                                              current damping :  0.550
 ITERATION  ENERGY          1e-ENERGY        2e-ENERGY     NORM[dD(SAO)]  TOL
  10  -75.955369532338    -122.33935554     37.582523947    0.125D-05 0.404D-11
          Norm of current diis error: 0.16682E-03
          max. resid. norm for Fia-block=  8.490D-05 for orbital      4a         
          max. resid. fock norm         =  8.646D-05 for orbital      4a         
 mo-orthogonalization: Cholesky decomposition
          Delta Eig. =     0.0004737614 eV 
 
                                              current damping :  0.600
 ITERATION  ENERGY          1e-ENERGY        2e-ENERGY     NORM[dD(SAO)]  TOL
  11  -75.955369541949    -122.33936379     37.582532192    0.277D-06 0.389D-11
          Norm of current diis error: 0.68636E-04
          max. resid. norm for Fia-block=  3.492D-05 for orbital      4a         
          max. resid. fock norm         =  3.538D-05 for orbital      4a         
          Delta Eig. =     0.0001759275 eV 
 
                                              current damping :  0.650
 ITERATION  ENERGY          1e-ENERGY        2e-ENERGY     NORM[dD(SAO)]  TOL
  12  -75.955369543455    -122.33935314     37.582521542    0.320D-06 0.380D-11
          Norm of current diis error: 0.28699E-04
          max. resid. norm for Fia-block=  1.386D-05 for orbital      4a         
          max. resid. fock norm         =  1.403D-05 for orbital      4a         
          Delta Eig. =     0.0000713983 eV 

 ENERGY CONVERGED !

 
                                              current damping :  0.500
 ITERATION  ENERGY          1e-ENERGY        2e-ENERGY     NORM[dD(SAO)]  TOL
  13  -75.955369543698    -122.33935200     37.582520398    0.146D-05 0.380D-11
          max. resid. norm for Fia-block=  3.062D-06 for orbital      4a         
          max. resid. fock norm         =  3.077D-06 for orbital      4a         

 convergence criteria satisfied after    13 iterations


   *************************************************************************
   QCEngine Turbomole                                                       
   *************************************************************************


                  ------------------------------------------ 
                 |  total energy      =    -75.95536954370  |
                  ------------------------------------------ 
                 :  kinetic energy    =     75.63206605914  :
                 :  potential energy  =   -151.58743560284  :
                 :  virial theorem    =      1.99574350719  :
                 :  wavefunction norm =      1.00000000000  :
                  .......................................... 


 <geterg> : there is no data group $energy 


 <skperg> : $end is missing 


 orbitals $scfmo  will be written to file mos

    irrep                  1a          2a          3a          4a          5a   
 eigenvalues H        -20.55250    -1.29794    -0.68127    -0.56035    -0.49510
            eV        -559.2664    -35.3190    -18.5384    -15.2480    -13.4725
 occupation              2.0000      2.0000      2.0000      2.0000      2.0000 

    irrep                  6a          7a          8a          9a         10a   
 eigenvalues H          0.16932     0.24840     0.76485     0.82701     1.18642
            eV           4.6076      6.7593     20.8129     22.5044     32.2845
 
 
 
 
 ==============================================================================
                           electrostatic moments
 ==============================================================================

 reference point for electrostatic moments:    0.00000   0.00000   0.00000

 
              nuc           elec       ->  total
 ------------------------------------------------------------------------------
                          charge      
 ------------------------------------------------------------------------------
          10.000000     -10.000000      -0.000000
 
 ------------------------------------------------------------------------------
                       dipole moment  
 ------------------------------------------------------------------------------
   x       0.000000       0.000000       0.000000
   y       0.000000      -0.000000      -0.000000
   z       1.019078      -0.162829       0.856249
 
   | dipole moment | =     0.8562 a.u. =     2.1764 debye 
 
 ------------------------------------------------------------------------------
                     quadrupole moment
 ------------------------------------------------------------------------------
  xx       0.000000      -5.305745      -5.305745
  yy       4.465192      -7.479074      -3.013882
  zz       2.245407      -6.491368      -4.245961
  xy       0.000000       0.000000       0.000000
  xz       0.000000       0.000000       0.000000
  yz       0.000000      -0.000000      -0.000000
 
     1/3  trace=      -4.188529
     anisotropy=       1.986680
 
 ==============================================================================
 


    ------------------------------------------------------------------------
         total  cpu-time :   0.11 seconds
         total wall-time :   0.06 seconds
    ------------------------------------------------------------------------

   ****  dscf : all done  ****


    2019-10-29 09:56:50.522 

