
 Primary working directories    : /tmp/sjlee
 Secondary working directories  : /tmp/sjlee
 Wavefunction directory         : /home/sjlee/wfu/
 Main file repository           : /tmp/sjlee/

 SHA1      : d6acd21eedbe3b647da44023aea332e813ee63f9
 NAME      : 2018.0.d6acd21
 ARCHNAME  : linux/x86_64_openmp
 FC        : /share/apps/openmpi/3.1.2/gcc720/bin/mpifort
 BLASLIB   : -lmkl_gf_ilp64 -lmkl_gnu_thread -lmkl_core
 id        : caltechinst

 Nodes             nprocs
 tachus.caltech.edu    1

 Using customized tuning parameters: mindgm=1; mindgv=20; mindgc=4; mindgr=1; noblas=0; minvec=7
 default implementation of scratch files=df  

 memory,225,M
 
 {orient,noorient}
 {symmetry,nosym}
 
 {bohr}
 geometry={
 O                     0.000000000000     0.000000000000    -0.129476940000
 H                     0.000000000000    -1.494187340000     1.027446510000
 }
 set,charge=0.0
 set,spin=1
 
 basis={
 default,sto-3g
 }
 
 {UHF}
 {FORCE}

 Variables initialized (919), CPU time= 0.00 sec
 Commands  initialized (755), CPU time= 0.02 sec, 610 directives.
 Default parameters read. Elapsed time= 0.08 sec

 Checking input...
 Passed
1


                                         ***  PROGRAM SYSTEM MOLPRO  ***
                                       Copyright, TTI GmbH Stuttgart, 2015
                                    Version 2018.0 linked Aug 30 2019 12:06:50


 **********************************************************************************************************************************
 LABEL *                                                                                 
  64 bit serial version                                                                  DATE: 09-Sep-19          TIME: 17:57:02  
 **********************************************************************************************************************************

 SHA1:             d6acd21eedbe3b647da44023aea332e813ee63f9
 **********************************************************************************************************************************

 Variable memory set to  225000000 words,  buffer space 

 ZSYMEL=NOSYM
 ZUNIT=BOHR


Geometry recognized as XYZ

 SETTING CHARGE         =     0.00000000D+00                                  
 SETTING SPIN           =         1.00000000                                  
 SETTING BASIS          =    STO-3G


 Recomputing integrals since basis changed


 Using spherical harmonics

 Library entry O      S STO-3G               selected for orbital group  1
 Library entry O      P STO-3G               selected for orbital group  1
 Library entry H      S STO-3G               selected for orbital group  2


 PROGRAM * SEWARD (Integral evaluation for generally contracted gaussian basis sets)     Author: Roland Lindh, 1990

 Geometry written to block  1 of record 700


 Point group  C1  



 ATOMIC COORDINATES

 NR  ATOM    CHARGE       X              Y              Z

   1  O       8.00    0.000000000    0.000000000   -0.129476940
   2  H       1.00    0.000000000   -1.494187340    1.027446510

 Bond lengths in Bohr (Angstrom)

 1-2  1.889726879
     ( 1.000000399)

 NUCLEAR CHARGE:                    9
 NUMBER OF PRIMITIVE AOS:          18
 NUMBER OF SYMMETRY AOS:           18
 NUMBER OF CONTRACTIONS:            6   (   6A   )
 NUMBER OF CORE ORBITALS:           1   (   1A   )
 NUMBER OF VALENCE ORBITALS:        5   (   5A   )


 NUCLEAR REPULSION ENERGY    4.23341600

 EXTRA SYMMETRY OF AOS IN SYMMETRY 1:   1 1 2 1 1 1

 Eigenvalues of metric

         1 0.398E+00 0.840E+00 0.100E+01 0.100E+01 0.113E+01 0.163E+01


 Contracted 2-electron integrals neglected if value below      1.0D-11
 AO integral compression algorithm  1   Integral accuracy      1.0D-11

     0.262 MB (compressed) written to integral file (100.0%)


 NUMBER OF SORTED TWO-ELECTRON INTEGRALS:        231.     BUFFER LENGTH:  32768
 NUMBER OF SEGMENTS:   1  SEGMENT LENGTH:        231      RECORD LENGTH: 524288

 Memory used in sort:       0.56 MW

 SORT1 READ         319. AND WROTE         108. INTEGRALS IN      1 RECORDS. CPU TIME:     0.00 SEC, REAL TIME:     0.00 SEC
 SORT2 READ         108. AND WROTE         231. INTEGRALS IN      1 RECORDS. CPU TIME:     0.01 SEC, REAL TIME:     0.00 SEC

 FILE SIZES:   FILE 1:    30.2 MBYTE,  FILE 4:     4.2 MBYTE,   TOTAL:     34.4 MBYTE

 OPERATOR DM      FOR CENTER  0  COORDINATES:    0.000000    0.000000    0.000000


 **********************************************************************************************************************************
 DATASETS  * FILE   NREC   LENGTH (MB)   RECORD NAMES
              1      19       29.95       500      610      700      900      950      970     1000      129      960     1100   
                                          VAR    BASINP    GEOM    SYMINP    ZMAT    AOBASIS   BASIS     P2S    ABASIS      S 
                                         1400     1410     1200     1210     1080     1600     1650     1300     1700   
                                           T        V       H0       H01     AOSYM     SMH    MOLCAS    ERIS     OPER   

 PROGRAMS   *        TOTAL       INT
 CPU TIMES  *         0.48      0.32
 REAL TIME  *         8.23 SEC
 DISK USED  *        34.71 MB
 **********************************************************************************************************************************


 PROGRAM * UHF-SCF       Authors: W. Meyer, H.-J. Werner


 NUMBER OF ELECTRONS:       5+    4-    SPACE SYMMETRY=1    SPIN SYMMETRY: Doublet 
 CONVERGENCE THRESHOLDS:    1.00E-06 (Density)    1.00E-07 (Energy)
 MAX. NUMBER OF ITERATIONS:       60
 INTERPOLATION TYPE:            DIIS
 INTERPOLATION STEPS:              2 (START)      1 (STEP)
 LEVEL SHIFTS:                 -0.20 (ALPHA)  -0.20 (BETA) 



 Orbital guess generated from atomic densities. Full valence occupancy:    5

 Molecular orbital dump at record        2200.2

 Initial alpha occupation   5
 Initial beta  occupation   4

 ITERATION    DDIFF          GRAD             ENERGY        2-EL.EN.            DIPOLE MOMENTS         DIIS
    1      0.000D+00      0.000D+00       -74.32749216     68.163159   -0.00000   -0.78577    0.60841    0
    2      0.598D-01      0.325D-01       -74.35875893     67.154371   -0.00000   -0.54846    0.42466    1
    3      0.380D-01      0.132D-01       -74.36444475     66.573923   -0.00000   -0.39731    0.30763    2
    4      0.369D-02      0.185D-02       -74.36458377     66.561938    0.00000   -0.38898    0.30118    3
    5      0.135D-02      0.908D-03       -74.36463976     66.558887    0.00000   -0.38630    0.29911    4
    6      0.364D-03      0.574D-03       -74.36467553     66.560386    0.00000   -0.38738    0.29994    5
    7      0.902D-04      0.377D-04       -74.36467557     66.559125    0.00000   -0.38703    0.29967    5
    8      0.621D-05      0.879D-05       -74.36467557     66.559092    0.00000   -0.38701    0.29966    5
    9      0.296D-05      0.358D-05       -74.36467557     66.559110    0.00000   -0.38701    0.29966    6
   10      0.137D-08      0.147D-08       -74.36467557     66.559110   -0.00000   -0.38701    0.29966    4
   11      0.102D-09      0.260D-09       -74.36467557     66.559110    0.00000   -0.38701    0.29966    2

 Final alpha occupancy:   5
 Final beta  occupancy:   4

 !UHF STATE  1.1 Energy               -74.364675574211
 Nuclear energy                         4.23341600
 One-electron energy                 -111.87764680
 Two-electron energy                   33.27955523
 Virial quotient                       -1.00526588
 !UHF STATE  1.1 Dipole moment          0.00000000    -0.38701294     0.29965743
 Dipole moment /Debye                   0.00000000    -0.98362434     0.76160334

 Orbital energies for positive spin:

         1.1          2.1          3.1          4.1          5.1          6.1
    -20.287526    -1.283874    -0.544044    -0.523804    -0.428915     0.590138

 Orbital energies for negative spin:

         1.1          2.1          3.1          4.1          5.1          6.1
    -20.258955    -1.117776    -0.496808    -0.376836     0.360990     0.625514


 HOMO     -4.1    -0.376836 =     -10.2542eV
 LUMO     -5.1     0.360990 =       9.8230eV
 LUMO-HOMO         0.737826 =      20.0773eV

 EXPECTATION VALUE OF S**2:             0.75399097

 Occupation number threshold for pseudo-canonical orbitals: 1.9990 (occupied), 0.0010 (virtual)

 Number of pseudo-canonical occupied orbitals per symmetry:    3
 Number of active natural orbitals per symmetry:               3

 Natural orbitals saved to record    2200.2 (Orbital set 3)

 Orbital spaces for UNO-CAS (Min. occupation: 0.020  Max. occupation: 1.980):

 Closed:        4
 Active:        1


 **********************************************************************************************************************************
 DATASETS  * FILE   NREC   LENGTH (MB)   RECORD NAMES
              1      19       29.95       500      610      700      900      950      970     1000      129      960     1100   
                                          VAR    BASINP    GEOM    SYMINP    ZMAT    AOBASIS   BASIS     P2S    ABASIS      S 
                                         1400     1410     1200     1210     1080     1600     1650     1300     1700   
                                           T        V       H0       H01     AOSYM     SMH    MOLCAS    ERIS     OPER   

              2       4        2.77       700     1000      520     2200   
                                         GEOM     BASIS   MCVARS     UHF  

 PROGRAMS   *        TOTAL   UHF-SCF       INT
 CPU TIMES  *         0.62      0.14      0.32
 REAL TIME  *         8.40 SEC
 DISK USED  *        34.71 MB
 **********************************************************************************************************************************


 PROGRAM * ALASKA (Gradient of the energy)     Author: R. Lindh

 Orbitals from record         2200.2

 For positive spin:
 Number of closed-shell orbitals:  5 (  5 )
 Number of occupied orbitals:      5 (  5 )
 For negative spin:
 Number of closed-shell orbitals:  4 (  4 )
 Number of occupied orbitals:      4 (  4 )

 Number of electrons=  5+   4-    Space symmetry=1      Wavefunction type: UNRESTRICTED    


 UHF GRADIENT FOR STATE 1.1

 Atom          dE/dx               dE/dy               dE/dz

   1        -0.000000000        -0.012808017         0.009917026
   2         0.000000000         0.012808017        -0.009917026

 Nuclear force contribution to virial =        -0.030610817


 **********************************************************************************************************************************
 DATASETS  * FILE   NREC   LENGTH (MB)   RECORD NAMES
              1      19       29.95       500      610      700      900      950      970     1000      129      960     1100   
                                          VAR    BASINP    GEOM    SYMINP    ZMAT    AOBASIS   BASIS     P2S    ABASIS      S 
                                         1400     1410     1200     1210     1080     1600     1650     1300     1700   
                                           T        V       H0       H01     AOSYM     SMH    MOLCAS    ERIS     OPER   

              2       4        2.77       700     1000      520     2200   
                                         GEOM     BASIS   MCVARS     UHF  

 PROGRAMS   *        TOTAL     FORCE   UHF-SCF       INT
 CPU TIMES  *         1.23      0.61      0.14      0.32
 REAL TIME  *        15.35 SEC
 DISK USED  *        34.71 MB
 **********************************************************************************************************************************
 Molecular orbitals read from record     2200.2  Type=UHF/NATURAL (state 1.1)
 Occupation numbers read from record     2200.2  Type=UHF/NATURAL (state 1.1)
 Orbital energies read from record       2200.2  Type=UHF/NATURAL (state 1.1)
 Redundancy group numbers read from rec  2200.2  Type=UHF/BETA (state 1.1)

 UHF/STO-3G energy=    -74.364675574211

         UHF-SCF
    -74.36467557
 **********************************************************************************************************************************
 Molpro calculation terminated
