„¬dispatch.outÚ/
Running Job 1 of 1 dispatch.in
qchem dispatch.in_19792.0 /var/folders/qq/47vpjmmd015flhld7xgm_zjw0000gn/T/tmps3ewndnh_qchem_scratch/savepath/ 0
/Users/daniel/install/qchem/exe/qcprog.exe_s dispatch.in_19792.0 /var/folders/qq/47vpjmmd015flhld7xgm_zjw0000gn/T/tmps3ewndnh_qchem_scratch/savepath/
                  Welcome to Q-Chem
     A Quantum Leap Into The Future Of Chemistry


 Q-Chem 5.2, Q-Chem, Inc., Pleasanton, CA (2019)

 Yihan Shao,  Zhengting Gan,  E. Epifanovsky,  A. T. B. Gilbert,  M. Wormit,  
 J. Kussmann,  A. W. Lange,  A. Behn,  Jia Deng,  Xintian Feng,  D. Ghosh,  
 M. Goldey,  P. R. Horn,  L. D. Jacobson,  I. Kaliman,  T. Kus,  A. Landau,  
 Jie Liu,  E. I. Proynov,  R. M. Richard,  R. P. Steele,  E. J. Sundstrom,  
 H. L. Woodcock III,  P. M. Zimmerman,  D. Zuev,  B. Albrecht,  E. Alguire,  
 S. A. Baeppler,  D. Barton,  Z. Benda,  Y. A. Bernard,  E. J. Berquist,  
 K. B. Bravaya,  H. Burton,  D. Casanova,  Chun-Min Chang,  Yunqing Chen,  
 A. Chien,  K. D. Closser,  M. P. Coons,  S. Coriani,  S. Dasgupta,  
 A. L. Dempwolff,  M. Diedenhofen,  Hainam Do,  R. G. Edgar,  Po-Tung Fang,  
 S. Faraji,  S. Fatehi,  Qingguo Feng,  K. D. Fenk,  J. Fosso-Tande,  
 J. Gayvert,  Qinghui Ge,  A. Ghysels,  G. Gidofalvi,  J. Gomes,  
 J. Gonthier,  A. Gunina,  D. Hait,  M. W. D. Hanson-Heine,  
 P. H. P. Harbach,  A. W. Hauser,  M. F. Herbst,  J. E. Herr,  
 E. G. Hohenstein,  Z. C. Holden,  Kerwin Hui,  B. C. Huynh,  T.-C. Jagau,  
 Hyunjun Ji,  B. Kaduk,  K. Khistyaev,  Jaehoon Kim,  P. Klunzinger,  K. Koh,  
 D. Kosenkov,  L. Koulias,  T. Kowalczyk,  C. M. Krauter,  A. Kunitsa,  
 Ka Un Lao,  A. Laurent,  K. V. Lawler,  Joonho Lee,  D. Lefrancois,  
 S. Lehtola,  D. S. Levine,  Yi-Pei Li,  You-Sheng Lin,  Fenglai Liu,  
 E. Livshits,  A. Luenser,  P. Manohar,  E. Mansoor,  S. F. Manzer,  
 Shan-Ping Mao,  Yuezhi Mao,  N. Mardirossian,  A. V. Marenich,  
 T. Markovich,  L. A. Martinez-Martinez,  S. A. Maurer,  N. J. Mayhall,  
 S. C. McKenzie,  J.-M. Mewes,  P. Morgante,  A. F. Morrison,  
 J. W. Mullinax,  K. Nanda,  T. S. Nguyen-Beck,  R. Olivares-Amaya,  
 J. A. Parkhill,  Zheng Pei,  T. M. Perrine,  F. Plasser,  P. Pokhilko,  
 S. Prager,  A. Prociuk,  E. Ramos,  D. R. Rehn,  F. Rob,  M. Scheurer,  
 M. Schneider,  N. Sergueev,  S. M. Sharada,  S. Sharma,  D. W. Small,  
 T. Stauch,  T. Stein,  Yu-Chuan Su,  A. J. W. Thom,  A. Tkatchenko,  
 T. Tsuchimochi,  N. M. Tubman,  L. Vogt,  M. L. Vidal,  O. Vydrov,  
 M. A. Watson,  J. Wenzel,  M. de Wergifosse,  T. A. Wesolowski,  A. White,  
 J. Witte,  A. Yamada,  Jun Yang,  K. Yao,  S. Yeganeh,  S. R. Yost,  
 Zhi-Qiang You,  A. Zech,  Igor Ying Zhang,  Xing Zhang,  Yan Zhao,  
 Ying Zhu,  B. R. Brooks,  G. K. L. Chan,  C. J. Cramer,  M. S. Gordon,  
 W. J. Hehre,  A. Klamt,  M. W. Schmidt,  C. D. Sherrill,  D. G. Truhlar,  
 A. Aspuru-Guzik,  R. Baer,  A. T. Bell,  N. A. Besley,  Jeng-Da Chai,  
 A. E. DePrince, III,  R. A. DiStasio Jr.,  A. Dreuw,  B. D. Dunietz,  
 T. R. Furlani,  Chao-Ping Hsu,  Yousung Jung,  Jing Kong,  D. S. Lambrecht,  
 WanZhen Liang,  C. Ochsenfeld,  V. A. Rassolov,  L. V. Slipchenko,  
 J. E. Subotnik,  T. Van Voorhis,  J. M. Herbert,  A. I. Krylov,  
 P. M. W. Gill,  M. Head-Gordon

 Contributors to earlier versions of Q-Chem not listed above: 
 R. D. Adamson,  B. Austin,  J. Baker,  G. J. O. Beran,  K. Brandhorst,  
 S. T. Brown,  E. F. C. Byrd,  A. K. Chakraborty,  C.-L. Cheng,  
 Siu Hung Chien,  D. M. Chipman,  D. L. Crittenden,  H. Dachsel,  
 R. J. Doerksen,  A. D. Dutoi,  L. Fusti-Molnar,  W. A. Goddard III,  
 A. Golubeva-Zadorozhnaya,  S. R. Gwaltney,  G. Hawkins,  A. Heyden,  
 S. Hirata,  G. Kedziora,  F. J. Keil,  C. Kelley,  Jihan Kim,  R. A. King,  
 R. Z. Khaliullin,  P. P. Korambath,  W. Kurlancheek,  A. M. Lee,  M. S. Lee,  
 S. V. Levchenko,  Ching Yeh Lin,  D. Liotard,  R. C. Lochan,  I. Lotan,  
 P. E. Maslen,  N. Nair,  D. P. O'Neill,  D. Neuhauser,  E. Neuscamman,  
 C. M. Oana,  R. Olson,  B. Peters,  R. Peverati,  P. A. Pieniazek,  
 Y. M. Rhee,  J. Ritchie,  M. A. Rohrdanz,  E. Rosta,  N. J. Russ,  
 H. F. Schaefer III,  N. E. Schultz,  N. Shenvi,  A. C. Simmonett,  A. Sodt,  
 D. Stuck,  K. S. Thanthiriwatte,  V. Vanovschi,  Tao Wang,  A. Warshel,  
 C. F. Williams,  Q. Wu,  X. Xu,  W. Zhang

 Please cite Q-Chem as follows:
 Y. Shao et al., Mol. Phys. 113, 184-215 (2015)
 DOI: 10.1080/00268976.2014.952696

 Q-Chem 5.2.1 for Mac (Intel) OS X

 Parts of Q-Chem use Armadillo 8.300.2 (Tropical Shenanigans).
 http://arma.sourceforge.net/

 Q-Chem begins on Fri Nov  1 13:37:32 2019  

Host: 
0

     Scratch files written to /var/folders/qq/47vpjmmd015flhld7xgm_zjw0000gn/T/tmps3ewndnh_qchem_scratch/savepath//
 Jul1719 |scratch|qcdevops|jenkins|workspace|build_RNUM 7083   
Processing $rem in /Users/daniel/install/qchem/config/preferences:
	 MEM_TOTAL  8000 
NAlpha2: 10
NElect   10
Mult     1

Checking the input file for inconsistencies... 	...done.

--------------------------------------------------------------
User input:
--------------------------------------------------------------
$comment
Automatically generated Q-Chem input file by QCEngine
$end

$molecule
0 1
O     0.00000000     0.00000000    -0.12947694
H     0.00000000    -1.49418734     1.02744651
H     0.00000000     1.49418734     1.02744651
$end

$rem
INPUT_BOHR            TRUE
MEM_TOTAL             2744
JOBTYPE               force
METHOD                HF
BASIS                 6-31g
$end
--------------------------------------------------------------
 ----------------------------------------------------------------
             Standard Nuclear Orientation (Bohr)
    I     Atom           X                Y                Z
 ----------------------------------------------------------------
    1      O       0.0000000000    -0.0000000000     0.2313846900
    2      H      -1.4941873400    -0.0000000000    -0.9255387600
    3      H       1.4941873400     0.0000000000    -0.9255387600
 ----------------------------------------------------------------
 Molecular Point Group                 C2v   NOp =  4
 Largest Abelian Subgroup              C2v   NOp =  4
 Nuclear Repulsion Energy =           8.80146206 hartrees
 There are        5 alpha and        5 beta electrons
 Requested basis set is 6-31G
 There are 7 shells and 13 basis functions

 Total QAlloc Memory Limit   2744 MB
 Mega-Array Size       188 MB
 MEM_STATIC part       192 MB

                       Distance Matrix (Bohrs)
             O (  1)   H (  2)
   H (  2)  1.889727
   H (  3)  1.889727  2.988375
 
 A cutoff of  1.0D-11 yielded     28 shell pairs
 There are       103 function pairs
 Smallest overlap matrix eigenvalue = 7.39E-02

 Scale SEOQF with 1.000000e+00/1.000000e+00/1.000000e+00

 Standard Electronic Orientation quadrupole field applied
 Nucleus-field energy     =    -0.0000000002 hartrees
 Guess from superposition of atomic densities
 Warning:  Energy on first SCF cycle will be non-variational
 SAD guess density has 10.000000 electrons

 -----------------------------------------------------------------------
  General SCF calculation program by
  Eric Jon Sundstrom, Paul Horn, Yuezhi Mao, Dmitri Zuev, Alec White,
  David Stuck, Shaama M.S., Shane Yost, Joonho Lee, David Small,
  Daniel Levine, Susi Lehtola, Hugh Burton, Evgeny Epifanovsky,
  Bang C. Huynh
 -----------------------------------------------------------------------
 Hartree-Fock
 using 2 threads for integral computing
 -------------------------------------------------------
 OpenMP Integral computing Module                
 Release: version 1.0, May 2013, Q-Chem Inc. Pittsburgh 
 -------------------------------------------------------
 A restricted SCF calculation will be
 performed using DIIS
 SCF converges when DIIS error is below 1.0e-08
 ---------------------------------------
  Cycle       Energy         DIIS error
 ---------------------------------------
    1     -75.8284451171      2.35e-01  
    2     -75.9439536351      4.25e-02  
    3     -75.9716399178      2.36e-02  
    4     -75.9799664929      2.22e-03  
    5     -75.9801487561      4.67e-04  
    6     -75.9801577096      5.73e-05  
    7     -75.9801578573      5.37e-06  
    8     -75.9801578583      1.02e-06  
    9     -75.9801578584      1.91e-07  
   10     -75.9801578584      2.63e-08  
   11     -75.9801578584      2.06e-09  Convergence criterion met
 ---------------------------------------
 SCF time:   CPU 0.20s  wall 0.00s 
 SCF   energy in the final basis set =      -75.9801578584
 Total energy in the final basis set =      -75.9801578584
 
 --------------------------------------------------------------
             Orbital Energies (a.u.) and Symmetries
 --------------------------------------------------------------
 
 Alpha MOs, Restricted
 -- Occupied --                  
-20.569  -1.335  -0.687  -0.554  -0.499
  1 A1    2 A1    1 B1    3 A1    1 B2                                         
 -- Virtual --                   
  0.193   0.288   1.041   1.130   1.164   1.221   1.369   1.693
  4 A1    2 B1    3 B1    5 A1    2 B2    6 A1    4 B1    7 A1                 
 
 Beta MOs, Restricted
 -- Occupied --                  
-20.569  -1.335  -0.687  -0.554  -0.499
  1 A1    2 A1    1 B1    3 A1    1 B2                                         
 -- Virtual --                   
  0.193   0.288   1.041   1.130   1.164   1.221   1.369   1.693
  4 A1    2 B1    3 B1    5 A1    2 B2    6 A1    4 B1    7 A1                 
 --------------------------------------------------------------
 
          Ground-State Mulliken Net Atomic Charges

     Atom                 Charge (a.u.)
  ----------------------------------------
      1 O                    -0.796727
      2 H                     0.398363
      3 H                     0.398363
  ----------------------------------------
  Sum of atomic charges =     0.000000

 -----------------------------------------------------------------
                    Cartesian Multipole Moments
 -----------------------------------------------------------------
    Charge (ESU x 10^10)
                -0.0000
    Dipole Moment (Debye)
         X      -0.0000      Y      -0.0000      Z      -2.6444
       Tot       2.6444
    Quadrupole Moments (Debye-Ang)
        XX      -4.1362     XY       0.0000     YY      -7.3007
        XZ      -0.0000     YZ       0.0000     ZZ      -6.1577
    Octopole Moments (Debye-Ang^2)
       XXX      -0.0000    XXY       0.0000    XYY      -0.0000
       YYY       0.0000    XXZ      -1.4351    XYZ      -0.0000
       YYZ      -0.4131    XZZ      -0.0000    YZZ       0.0000
       ZZZ      -1.5634
    Hexadecapole Moments (Debye-Ang^3)
      XXXX      -5.9676   XXXY       0.0000   XXYY      -2.1559
      XYYY       0.0000   YYYY      -5.2839   XXXZ      -0.0000
      XXYZ       0.0000   XYYZ      -0.0000   YYYZ       0.0000
      XXZZ      -1.7061   XYZZ       0.0000   YYZZ      -2.0141
      XZZZ      -0.0000   YZZZ       0.0000   ZZZZ      -6.4637
 -----------------------------------------------------------------
 Calculating analytic gradient of the SCF energy
 Gradient of SCF Energy
            1           2           3
    1  -0.0000000  -0.0283763   0.0283763
    2  -0.0000000   0.0000000   0.0000000
    3   0.0645259  -0.0322629  -0.0322629
 Max gradient component =       6.453E-02
 RMS gradient           =       2.954E-02
 Gradient time:  CPU 0.06 s  wall 0.03 s
Archival summary:
1\1\h80adf39b.dhcp.vt.edu\JobtypUnspecified\HF\6-31G\12\FriNov113:37:322019FriNov113:37:322019\0\\#,JobtypUnspecified,HF,6-31G,\\0,1\O\H,1,1.88973\H,1,1.88973,2,104.5\\HF=-75.9801579\\@

 Total job time:  0.23s(wall), 0.42s(cpu) 
 Fri Nov  1 13:37:32 2019

        *************************************************************
        *                                                           *
        *  Thank you very much for using Q-Chem.  Have a nice day.  *
        *                                                           *
        *************************************************************


¤99.0Ä`m}<Yš!@JªèºþRÀ                                                                        JªèºþRÀ¥131.0ÄH ‹P 4$µ¼x‰¾Mjí±¼à¾ØÄ„°?Àï
·«¿°ªÿ'@d¨<€¾ÖÄ„ ¿ ì
·«? hÓæ(í–< ½ÖÄ„ ¿¥132.0À